============================== echo of input deck ==============================
echo
start

geometry
C    -0.08714006     1.38304372     0.00000008
C    -1.26702264     0.68586055     0.00000001
C    -1.16700412    -0.70996889     0.00000001
C     0.08324816    -1.32124953     0.00000007
C     1.24688828    -0.55787799     0.00000002
C     1.17091838     0.83946690     0.00000008
H    -2.23155837     1.17564063    -0.00000007
H    -2.06715194    -1.31129762    -0.00000006
H     0.15125622    -2.40063469     0.00000003
H     2.21539348    -1.04146876    -0.00000010
H     2.06635187     1.44643689    -0.00000007
symmetry c1
end

basis spherical
 * library "aug-cc-pvtz"
end

dft
 direct
 mult 2
 iterations 500
 xc b3lyp
end
task dft frequencies
================================================================================

 Output coordinates in angstroms (scale by  1.889725989 to convert to a.u.)

  No.       Tag          Charge          X              Y              Z
 ---- ---------------- ---------- -------------- -------------- --------------
    1 C                    6.0000    -0.08747224     1.38830409     0.00000005
    2 C                    6.0000    -1.26735482     0.69112092    -0.00000002
    3 C                    6.0000    -1.16733630    -0.70470852    -0.00000002
    4 C                    6.0000     0.08291598    -1.31598916     0.00000004
    5 C                    6.0000     1.24655610    -0.55261762    -0.00000001
    6 C                    6.0000     1.17058620     0.84472727     0.00000005
    7 H                    1.0000    -2.23189055     1.18090100    -0.00000010
    8 H                    1.0000    -2.06748412    -1.30603725    -0.00000009
    9 H                    1.0000     0.15092404    -2.39537432    -0.00000000
   10 H                    1.0000     2.21506130    -1.03620839    -0.00000013
   11 H                    1.0000     2.06601969     1.45169726    -0.00000010

         Total DFT energy =     -231.646332568508

                    DFT Final Alpha Molecular Orbital Analysis
                    ------------------------------------------

 Vector    1  Occ=1.000000D+00  E=-1.020522D+01

 Vector  305  Occ=0.000000D+00  E= 3.874568D+00

 Vector  306  Occ=0.000000D+00  E= 3.900125D+00

 Vector  307  Occ=0.000000D+00  E= 3.910059D+00

 Vector  308  Occ=0.000000D+00  E= 3.921989D+00

 Vector  309  Occ=0.000000D+00  E= 3.926205D+00

 Vector  310  Occ=0.000000D+00  E= 3.952412D+00

 Vector  311  Occ=0.000000D+00  E= 3.958677D+00

 Vector  312  Occ=0.000000D+00  E= 3.962811D+00

 Vector  313  Occ=0.000000D+00  E= 3.989448D+00

 Vector  314  Occ=0.000000D+00  E= 3.994138D+00

 Vector  315  Occ=0.000000D+00  E= 4.010696D+00

 Vector  316  Occ=0.000000D+00  E= 4.033102D+00

 Vector  317  Occ=0.000000D+00  E= 4.060748D+00

 Vector  318  Occ=0.000000D+00  E= 4.069999D+00

 Vector  319  Occ=0.000000D+00  E= 4.102925D+00

 Vector  320  Occ=0.000000D+00  E= 4.103528D+00

 Vector  321  Occ=0.000000D+00  E= 4.105872D+00

 Vector  322  Occ=0.000000D+00  E= 4.154007D+00

 Vector  323  Occ=0.000000D+00  E= 4.206804D+00

 Vector  324  Occ=0.000000D+00  E= 4.230600D+00

 Vector  325  Occ=0.000000D+00  E= 4.236978D+00

 Vector  326  Occ=0.000000D+00  E= 4.330833D+00

 Vector  327  Occ=0.000000D+00  E= 4.345463D+00

 Vector  328  Occ=0.000000D+00  E= 4.390500D+00

 Vector  329  Occ=0.000000D+00  E= 4.420641D+00

 Vector  330  Occ=0.000000D+00  E= 4.444574D+00

 Vector  331  Occ=0.000000D+00  E= 4.462578D+00

 Vector  332  Occ=0.000000D+00  E= 4.485981D+00

 Vector  333  Occ=0.000000D+00  E= 4.490608D+00

 Vector  334  Occ=0.000000D+00  E= 4.506299D+00

 Vector  335  Occ=0.000000D+00  E= 4.520574D+00

 Vector  336  Occ=0.000000D+00  E= 4.575949D+00

 Vector  337  Occ=0.000000D+00  E= 4.627117D+00

 Vector  338  Occ=0.000000D+00  E= 4.651229D+00

 Vector  339  Occ=0.000000D+00  E= 4.658438D+00

 Vector  340  Occ=0.000000D+00  E= 4.705198D+00

 Vector  341  Occ=0.000000D+00  E= 4.720351D+00

 Vector  342  Occ=0.000000D+00  E= 4.750775D+00

 Vector  343  Occ=0.000000D+00  E= 4.754488D+00

 Vector  344  Occ=0.000000D+00  E= 4.767746D+00

 Vector  345  Occ=0.000000D+00  E= 4.802314D+00

 Vector  346  Occ=0.000000D+00  E= 4.805053D+00

 Vector  347  Occ=0.000000D+00  E= 4.807688D+00

 Vector  348  Occ=0.000000D+00  E= 4.822855D+00

 Vector  349  Occ=0.000000D+00  E= 4.857674D+00

 Vector  350  Occ=0.000000D+00  E= 4.903569D+00

 Vector  351  Occ=0.000000D+00  E= 4.933806D+00

 Vector  352  Occ=0.000000D+00  E= 4.949687D+00

 Vector  353  Occ=0.000000D+00  E= 4.959776D+00

 Vector  354  Occ=0.000000D+00  E= 4.982622D+00

 Vector  355  Occ=0.000000D+00  E= 5.085766D+00

 Vector  356  Occ=0.000000D+00  E= 5.088846D+00

 Vector  357  Occ=0.000000D+00  E= 5.093061D+00

 Vector  358  Occ=0.000000D+00  E= 5.167003D+00

 Vector  359  Occ=0.000000D+00  E= 5.260320D+00

 Vector  360  Occ=0.000000D+00  E= 5.323274D+00

 Vector  361  Occ=0.000000D+00  E= 5.323638D+00

 Vector  362  Occ=0.000000D+00  E= 5.410793D+00

 Vector  363  Occ=0.000000D+00  E= 5.415713D+00

 Vector  364  Occ=0.000000D+00  E= 5.436364D+00

 Vector  365  Occ=0.000000D+00  E= 5.620430D+00

 Vector  366  Occ=0.000000D+00  E= 5.635090D+00

 Vector  367  Occ=0.000000D+00  E= 5.682465D+00

 Vector  368  Occ=0.000000D+00  E= 5.749057D+00

 Vector  369  Occ=0.000000D+00  E= 5.802542D+00

 Vector  370  Occ=0.000000D+00  E= 5.919777D+00

 Vector  371  Occ=0.000000D+00  E= 5.930081D+00

 Vector  372  Occ=0.000000D+00  E= 6.047843D+00

 Vector  373  Occ=0.000000D+00  E= 6.165673D+00

 Vector  374  Occ=0.000000D+00  E= 6.253111D+00

 Vector  375  Occ=0.000000D+00  E= 6.406693D+00

 Vector  376  Occ=0.000000D+00  E= 6.449982D+00

 Vector  377  Occ=0.000000D+00  E= 6.604576D+00

 Vector  378  Occ=0.000000D+00  E= 6.864829D+00

 Vector  379  Occ=0.000000D+00  E= 1.504894D+01

 Vector  380  Occ=0.000000D+00  E= 1.506637D+01

 Vector  381  Occ=0.000000D+00  E= 1.597863D+01

 Vector  382  Occ=0.000000D+00  E= 1.764805D+01

 Vector  383  Occ=0.000000D+00  E= 1.800511D+01

 Vector  384  Occ=0.000000D+00  E= 1.806318D+01

     Multipole analysis of the density
     ---------------------------------

     L   x y z        total         alpha         beta         nuclear
     -   - - -        -----         -----         ----         -------
     0   0 0 0     -0.000000    -21.000000    -20.000000     41.000000

     1   1 0 0      0.021316      0.106691     -0.085375     -0.000000
     1   0 1 0     -0.340558     -1.694461      1.353903      0.000000
     1   0 0 1     -0.000000     -0.000000     -0.000000     -0.000000

     2   2 0 0    -22.668932   -108.565446   -106.579979    192.476493
     2   1 1 0      0.190294     -0.490575     -1.118427      1.799295
     2   1 0 1     -0.000000     -0.000001     -0.000001      0.000002
     2   0 2 0    -25.677167   -100.810375    -88.899351    164.032559
     2   0 1 1     -0.000000     -0.000001     -0.000001      0.000001

 Zero-Point correction to Energy  =   54.621 kcal/mol  (  0.087044 au)
 Thermal correction to Energy     =   57.369 kcal/mol  (  0.091423 au)
 Thermal correction to Enthalpy   =   57.961 kcal/mol  (  0.092367 au)
 Total Entropy                    =   68.807 cal/mol-K
   - Translational                =   38.923 cal/mol-K (mol. weight =  77.0391)
   - Rotational                   =   25.503 cal/mol-K (symmetry #  =        1)
   - Vibrational                  =    4.381 cal/mol-K
   - Translational                  =    2.979 cal/mol-K
   - Rotational                     =    2.979 cal/mol-K
   - Vibrational                    =   10.866 cal/mol-K
 P.Frequency       -0.00       -0.00       -0.00        0.00        0.00        0.00
 P.Frequency      399.53      423.91      598.92      618.21      673.61      720.47
 P.Frequency      815.46      897.09      977.28      992.29     1006.59     1016.13
 P.Frequency     1049.38     1071.14     1174.68     1174.89     1301.19     1323.47
 P.Frequency     1464.22     1471.12     1569.96     1626.15     3157.13     3163.03
 P.Frequency     3175.27     3177.02     3188.21

 Normal Eigenvalue ||           Projected Infra Red Intensities
  Mode   [cm**-1]  || [atomic units] [(debye/angs)**2] [(KM/mol)] [arbitrary]
 ------ ---------- || -------------- ----------------- ---------- -----------
    1       -0.000 ||    0.000001           0.000         0.001       0.002
    2       -0.000 ||    0.000094           0.002         0.092       0.180
    3       -0.000 ||    0.000045           0.001         0.044       0.086
    4        0.000 ||    0.000269           0.006         0.262       0.513
    5        0.000 ||    0.000001           0.000         0.001       0.001
    6        0.000 ||    0.000191           0.004         0.186       0.365
    7      399.535 ||    0.000000           0.000         0.000       0.000
    8      423.909 ||    0.006546           0.151         6.381      12.498
    9      598.923 ||    0.000559           0.013         0.545       1.067
   10      618.211 ||    0.001643           0.038         1.601       3.136
   11      673.615 ||    0.025362           0.585        24.724      48.424
   12      720.468 ||    0.071357           1.646        69.563     136.242
   13      815.463 ||    0.000000           0.000         0.000       0.000
   14      897.086 ||    0.000476           0.011         0.464       0.909
   15      977.282 ||    0.000000           0.000         0.000       0.000
   16      992.287 ||    0.001180           0.027         1.150       2.252
   17     1006.593 ||    0.000160           0.004         0.156       0.305
   18     1016.130 ||    0.000361           0.008         0.352       0.689
   19     1049.377 ||    0.008297           0.191         8.088      15.841
   20     1071.139 ||    0.003691           0.085         3.599       7.048
   21     1174.683 ||    0.000078           0.002         0.076       0.149
   22     1174.891 ||    0.000125           0.003         0.122       0.239
   23     1301.191 ||    0.000309           0.007         0.301       0.589
   24     1323.466 ||    0.000189           0.004         0.184       0.361
   25     1464.220 ||    0.005024           0.116         4.897       9.592
   26     1471.122 ||    0.007716           0.178         7.522      14.733
   27     1569.958 ||    0.001115           0.026         1.087       2.129
   28     1626.147 ||    0.001897           0.044         1.849       3.622
   29     3157.126 ||    0.000902           0.021         0.880       1.723
   30     3163.027 ||    0.003656           0.084         3.565       6.981
   31     3175.273 ||    0.003836           0.089         3.740       7.325
   32     3177.015 ||    0.018732           0.432        18.261      35.764
   33     3188.210 ||    0.009026           0.208         8.799      17.234
 ----------------------------------------------------------------------------

 Total times  cpu:     1419.8s     wall:     1448.1s
