============================== echo of input deck ==============================
echo
start

geometry
C         -1.51508        2.92777        0.00000
C         -2.68030        2.15344        0.00000
C         -2.59233        0.75717        0.00000
C         -1.33913        0.13522        0.00000
C         -0.17391        0.90954        0.00000
C         -0.26188        2.30582        0.00000
H         -3.64981        2.63460       -0.00000
H         -3.49377        0.15813        0.00000
H         -1.27107       -0.94498        0.00000
H          0.79560        0.42839        0.00000
H          0.63957        2.90486        0.00000
symmetry c1
end

basis spherical
 * library "aug-cc-pvtz"
end

dft
 direct
 mult 2
 iterations 500
 xc b3lyp
end
task dft optimize
================================================================================

         Total DFT energy =     -231.642863903652
@ Step       Energy      Delta E   Gmax     Grms     Xrms     Xmax   Walltime
@ ---- ---------------- -------- -------- -------- -------- -------- --------
@    0    -231.64286390  0.0D+00  0.01827  0.00497  0.00000  0.00000    157.5
         Total DFT energy =     -231.646170193140
         Total DFT energy =     -231.646230947356
@    1    -231.64623095 -3.4D-03  0.00579  0.00124  0.02733  0.14295    388.6
         Total DFT energy =     -231.646319141996
         Total DFT energy =   -231.646319141996
@    2    -231.64631914 -8.8D-05  0.00048  0.00013  0.00366  0.00873    517.4
         Total DFT energy =     -231.646326073565
         Total DFT energy =     -231.646325300580
@    3    -231.64632530 -6.2D-06  0.00055  0.00014  0.00192  0.00440    617.9
         Total DFT energy =     -231.646327329916

                    DFT Final Alpha Molecular Orbital Analysis
                    ------------------------------------------

 Vector    1  Occ=1.000000D+00  E=-1.020524D+01

 Vector  305  Occ=0.000000D+00  E= 3.874567D+00

 Vector  306  Occ=0.000000D+00  E= 3.900122D+00

 Vector  307  Occ=0.000000D+00  E= 3.910054D+00

 Vector  308  Occ=0.000000D+00  E= 3.921991D+00

 Vector  309  Occ=0.000000D+00  E= 3.926207D+00

 Vector  310  Occ=0.000000D+00  E= 3.952409D+00

 Vector  311  Occ=0.000000D+00  E= 3.958710D+00

 Vector  312  Occ=0.000000D+00  E= 3.962810D+00

 Vector  313  Occ=0.000000D+00  E= 3.989446D+00

 Vector  314  Occ=0.000000D+00  E= 3.994128D+00

 Vector  315  Occ=0.000000D+00  E= 4.010701D+00

 Vector  316  Occ=0.000000D+00  E= 4.033093D+00

 Vector  317  Occ=0.000000D+00  E= 4.060745D+00

 Vector  318  Occ=0.000000D+00  E= 4.069999D+00

 Vector  319  Occ=0.000000D+00  E= 4.102912D+00

 Vector  320  Occ=0.000000D+00  E= 4.103520D+00

 Vector  321  Occ=0.000000D+00  E= 4.105868D+00

 Vector  322  Occ=0.000000D+00  E= 4.154005D+00

 Vector  323  Occ=0.000000D+00  E= 4.206805D+00

 Vector  324  Occ=0.000000D+00  E= 4.230596D+00

 Vector  325  Occ=0.000000D+00  E= 4.236983D+00

 Vector  326  Occ=0.000000D+00  E= 4.330835D+00

 Vector  327  Occ=0.000000D+00  E= 4.345462D+00

 Vector  328  Occ=0.000000D+00  E= 4.390500D+00

 Vector  329  Occ=0.000000D+00  E= 4.420638D+00

 Vector  330  Occ=0.000000D+00  E= 4.444572D+00

 Vector  331  Occ=0.000000D+00  E= 4.462574D+00

 Vector  332  Occ=0.000000D+00  E= 4.485984D+00

 Vector  333  Occ=0.000000D+00  E= 4.490604D+00

 Vector  334  Occ=0.000000D+00  E= 4.506293D+00

 Vector  335  Occ=0.000000D+00  E= 4.520577D+00

 Vector  336  Occ=0.000000D+00  E= 4.575951D+00

 Vector  337  Occ=0.000000D+00  E= 4.627117D+00

 Vector  338  Occ=0.000000D+00  E= 4.651230D+00

 Vector  339  Occ=0.000000D+00  E= 4.658442D+00

 Vector  340  Occ=0.000000D+00  E= 4.705194D+00

 Vector  341  Occ=0.000000D+00  E= 4.720351D+00

 Vector  342  Occ=0.000000D+00  E= 4.750780D+00

 Vector  343  Occ=0.000000D+00  E= 4.754486D+00

 Vector  344  Occ=0.000000D+00  E= 4.767744D+00

 Vector  345  Occ=0.000000D+00  E= 4.802311D+00

 Vector  346  Occ=0.000000D+00  E= 4.805052D+00

 Vector  347  Occ=0.000000D+00  E= 4.807690D+00

 Vector  348  Occ=0.000000D+00  E= 4.822852D+00

 Vector  349  Occ=0.000000D+00  E= 4.857671D+00

 Vector  350  Occ=0.000000D+00  E= 4.903570D+00

 Vector  351  Occ=0.000000D+00  E= 4.933805D+00

 Vector  352  Occ=0.000000D+00  E= 4.949687D+00

 Vector  353  Occ=0.000000D+00  E= 4.959776D+00

 Vector  354  Occ=0.000000D+00  E= 4.982620D+00

 Vector  355  Occ=0.000000D+00  E= 5.085766D+00

 Vector  356  Occ=0.000000D+00  E= 5.088848D+00

 Vector  357  Occ=0.000000D+00  E= 5.093062D+00

 Vector  358  Occ=0.000000D+00  E= 5.167004D+00

 Vector  359  Occ=0.000000D+00  E= 5.260320D+00

 Vector  360  Occ=0.000000D+00  E= 5.323276D+00

 Vector  361  Occ=0.000000D+00  E= 5.323641D+00

 Vector  362  Occ=0.000000D+00  E= 5.410791D+00

 Vector  363  Occ=0.000000D+00  E= 5.415712D+00

 Vector  364  Occ=0.000000D+00  E= 5.436365D+00

 Vector  365  Occ=0.000000D+00  E= 5.620435D+00

 Vector  366  Occ=0.000000D+00  E= 5.635092D+00

 Vector  367  Occ=0.000000D+00  E= 5.682465D+00

 Vector  368  Occ=0.000000D+00  E= 5.749056D+00

 Vector  369  Occ=0.000000D+00  E= 5.802540D+00

 Vector  370  Occ=0.000000D+00  E= 5.919778D+00

 Vector  371  Occ=0.000000D+00  E= 5.930084D+00

 Vector  372  Occ=0.000000D+00  E= 6.047841D+00

 Vector  373  Occ=0.000000D+00  E= 6.165666D+00

 Vector  374  Occ=0.000000D+00  E= 6.253118D+00

 Vector  375  Occ=0.000000D+00  E= 6.406691D+00

 Vector  376  Occ=0.000000D+00  E= 6.449977D+00

 Vector  377  Occ=0.000000D+00  E= 6.604581D+00

 Vector  378  Occ=0.000000D+00  E= 6.864830D+00

 Vector  379  Occ=0.000000D+00  E= 1.504894D+01

 Vector  380  Occ=0.000000D+00  E= 1.506637D+01

 Vector  381  Occ=0.000000D+00  E= 1.597866D+01

 Vector  382  Occ=0.000000D+00  E= 1.764805D+01

 Vector  383  Occ=0.000000D+00  E= 1.800512D+01

 Vector  384  Occ=0.000000D+00  E= 1.806318D+01

     Multipole analysis of the density
     ---------------------------------

     L   x y z        total         alpha         beta         nuclear
     -   - - -        -----         -----         ----         -------
     0   0 0 0     -0.000000    -21.000000    -20.000000     41.000000

     1   1 0 0      0.021473      0.093585     -0.097849      0.025737
     1   0 1 0     -0.340813     -1.485797      1.552550     -0.407567
     1   0 0 1     -0.000001     -0.000002     -0.000001      0.000003

     2   2 0 0    -22.668899   -108.565432   -106.579977    192.476510
     2   1 1 0      0.189872     -0.492573     -1.116595      1.799039
     2   1 0 1     -0.000000     -0.000001     -0.000001      0.000002
     2   0 2 0    -25.670464   -100.778679    -88.928395    164.036610
     2   0 1 1     -0.000004     -0.000003     -0.000002      0.000001

         Total DFT energy =   -231.646327329916
@    4    -231.64632733 -2.0D-06  0.00004  0.00001  0.00072  0.00141    687.5
@    4    -231.64632733 -2.0D-06  0.00004  0.00001  0.00072  0.00141    687.5

 Output coordinates in angstroms (scale by  1.889725989 to convert to a.u.)

  No.       Tag          Charge          X              Y              Z
 ---- ---------------- ---------- -------------- -------------- --------------
    1 C                    6.0000    -0.08714006     1.38304372     0.00000008
    2 C                    6.0000    -1.26702264     0.68586055     0.00000001
    3 C                    6.0000    -1.16700412    -0.70996889     0.00000001
    4 C                    6.0000     0.08324816    -1.32124953     0.00000007
    5 C                    6.0000     1.24688828    -0.55787799     0.00000002
    6 C                    6.0000     1.17091838     0.83946690     0.00000008
    7 H                    1.0000    -2.23155837     1.17564063    -0.00000007
    8 H                    1.0000    -2.06715194    -1.31129762    -0.00000006
    9 H                    1.0000     0.15125622    -2.40063469     0.00000003
   10 H                    1.0000     2.21539348    -1.04146876    -0.00000010
   11 H                    1.0000     2.06635187     1.44643689    -0.00000007

 Total times  cpu:      682.4s     wall:      687.6s
