============================== echo of input deck ==============================
echo
start

geometry
C    -0.08714006     1.38304372     0.00000008
C    -1.26702264     0.68586055     0.00000001
C    -1.16700412    -0.70996889     0.00000001
C     0.08324816    -1.32124953     0.00000007
C     1.24688828    -0.55787799     0.00000002
C     1.17091838     0.83946690     0.00000008
H    -2.23155837     1.17564063    -0.00000007
H    -2.06715194    -1.31129762    -0.00000006
H     0.15125622    -2.40063469     0.00000003
H     2.21539348    -1.04146876    -0.00000010
H     2.06635187     1.44643689    -0.00000007
symmetry c1
end

basis spherical
 * library "aug-cc-pvtz"
end

dft
 direct
 mult 2
 iterations 500
 xc b3lyp
end

tddft
 nroots 40
 notriplet
 algorithm 1
end
task tddft energy
================================================================================

 Output coordinates in angstroms (scale by  1.889725989 to convert to a.u.)

  No.       Tag          Charge          X              Y              Z
 ---- ---------------- ---------- -------------- -------------- --------------
    1 C                    6.0000    -0.08747224     1.38830409     0.00000005
    2 C                    6.0000    -1.26735482     0.69112092    -0.00000002
    3 C                    6.0000    -1.16733630    -0.70470852    -0.00000002
    4 C                    6.0000     0.08291598    -1.31598916     0.00000004
    5 C                    6.0000     1.24655610    -0.55261762    -0.00000001
    6 C                    6.0000     1.17058620     0.84472727     0.00000005
    7 H                    1.0000    -2.23189055     1.18090100    -0.00000010
    8 H                    1.0000    -2.06748412    -1.30603725    -0.00000009
    9 H                    1.0000     0.15092404    -2.39537432    -0.00000000
   10 H                    1.0000     2.21506130    -1.03620839    -0.00000013
   11 H                    1.0000     2.06601969     1.45169726    -0.00000010

         Total DFT energy =     -231.646327403832

                    DFT Final Alpha Molecular Orbital Analysis
                    ------------------------------------------

 Vector    1  Occ=1.000000D+00  E=-1.020525D+01

 Vector  305  Occ=0.000000D+00  E= 3.874562D+00

 Vector  306  Occ=0.000000D+00  E= 3.900123D+00

 Vector  307  Occ=0.000000D+00  E= 3.910057D+00

 Vector  308  Occ=0.000000D+00  E= 3.921982D+00

 Vector  309  Occ=0.000000D+00  E= 3.926203D+00

 Vector  310  Occ=0.000000D+00  E= 3.952404D+00

 Vector  311  Occ=0.000000D+00  E= 3.958705D+00

 Vector  312  Occ=0.000000D+00  E= 3.962806D+00

 Vector  313  Occ=0.000000D+00  E= 3.989443D+00

 Vector  314  Occ=0.000000D+00  E= 3.994127D+00

 Vector  315  Occ=0.000000D+00  E= 4.010696D+00

 Vector  316  Occ=0.000000D+00  E= 4.033091D+00

 Vector  317  Occ=0.000000D+00  E= 4.060742D+00

 Vector  318  Occ=0.000000D+00  E= 4.069996D+00

 Vector  319  Occ=0.000000D+00  E= 4.102911D+00

 Vector  320  Occ=0.000000D+00  E= 4.103517D+00

 Vector  321  Occ=0.000000D+00  E= 4.105868D+00

 Vector  322  Occ=0.000000D+00  E= 4.154002D+00

 Vector  323  Occ=0.000000D+00  E= 4.206800D+00

 Vector  324  Occ=0.000000D+00  E= 4.230598D+00

 Vector  325  Occ=0.000000D+00  E= 4.236978D+00

 Vector  326  Occ=0.000000D+00  E= 4.330833D+00

 Vector  327  Occ=0.000000D+00  E= 4.345457D+00

 Vector  328  Occ=0.000000D+00  E= 4.390495D+00

 Vector  329  Occ=0.000000D+00  E= 4.420637D+00

 Vector  330  Occ=0.000000D+00  E= 4.444569D+00

 Vector  331  Occ=0.000000D+00  E= 4.462572D+00

 Vector  332  Occ=0.000000D+00  E= 4.485978D+00

 Vector  333  Occ=0.000000D+00  E= 4.490600D+00

 Vector  334  Occ=0.000000D+00  E= 4.506294D+00

 Vector  335  Occ=0.000000D+00  E= 4.520575D+00

 Vector  336  Occ=0.000000D+00  E= 4.575941D+00

 Vector  337  Occ=0.000000D+00  E= 4.627116D+00

 Vector  338  Occ=0.000000D+00  E= 4.651229D+00

 Vector  339  Occ=0.000000D+00  E= 4.658440D+00

 Vector  340  Occ=0.000000D+00  E= 4.705196D+00

 Vector  341  Occ=0.000000D+00  E= 4.720351D+00

 Vector  342  Occ=0.000000D+00  E= 4.750771D+00

 Vector  343  Occ=0.000000D+00  E= 4.754483D+00

 Vector  344  Occ=0.000000D+00  E= 4.767746D+00

 Vector  345  Occ=0.000000D+00  E= 4.802312D+00

 Vector  346  Occ=0.000000D+00  E= 4.805049D+00

 Vector  347  Occ=0.000000D+00  E= 4.807686D+00

 Vector  348  Occ=0.000000D+00  E= 4.822856D+00

 Vector  349  Occ=0.000000D+00  E= 4.857667D+00

 Vector  350  Occ=0.000000D+00  E= 4.903565D+00

 Vector  351  Occ=0.000000D+00  E= 4.933807D+00

 Vector  352  Occ=0.000000D+00  E= 4.949682D+00

 Vector  353  Occ=0.000000D+00  E= 4.959776D+00

 Vector  354  Occ=0.000000D+00  E= 4.982618D+00

 Vector  355  Occ=0.000000D+00  E= 5.085766D+00

 Vector  356  Occ=0.000000D+00  E= 5.088847D+00

 Vector  357  Occ=0.000000D+00  E= 5.093062D+00

 Vector  358  Occ=0.000000D+00  E= 5.167002D+00

 Vector  359  Occ=0.000000D+00  E= 5.260316D+00

 Vector  360  Occ=0.000000D+00  E= 5.323273D+00

 Vector  361  Occ=0.000000D+00  E= 5.323638D+00

 Vector  362  Occ=0.000000D+00  E= 5.410794D+00

 Vector  363  Occ=0.000000D+00  E= 5.415708D+00

 Vector  364  Occ=0.000000D+00  E= 5.436361D+00

 Vector  365  Occ=0.000000D+00  E= 5.620431D+00

 Vector  366  Occ=0.000000D+00  E= 5.635088D+00

 Vector  367  Occ=0.000000D+00  E= 5.682463D+00

 Vector  368  Occ=0.000000D+00  E= 5.749053D+00

 Vector  369  Occ=0.000000D+00  E= 5.802537D+00

 Vector  370  Occ=0.000000D+00  E= 5.919776D+00

 Vector  371  Occ=0.000000D+00  E= 5.930080D+00

 Vector  372  Occ=0.000000D+00  E= 6.047840D+00

 Vector  373  Occ=0.000000D+00  E= 6.165663D+00

 Vector  374  Occ=0.000000D+00  E= 6.253113D+00

 Vector  375  Occ=0.000000D+00  E= 6.406687D+00

 Vector  376  Occ=0.000000D+00  E= 6.449976D+00

 Vector  377  Occ=0.000000D+00  E= 6.604575D+00

 Vector  378  Occ=0.000000D+00  E= 6.864823D+00

 Vector  379  Occ=0.000000D+00  E= 1.504893D+01

 Vector  380  Occ=0.000000D+00  E= 1.506637D+01

 Vector  381  Occ=0.000000D+00  E= 1.597866D+01

 Vector  382  Occ=0.000000D+00  E= 1.764804D+01

 Vector  383  Occ=0.000000D+00  E= 1.800510D+01

 Vector  384  Occ=0.000000D+00  E= 1.806317D+01

     Multipole analysis of the density
     ---------------------------------

     L   x y z        total         alpha         beta         nuclear
     -   - - -        -----         -----         ----         -------
     0   0 0 0     -0.000000    -21.000000    -20.000000     41.000000

     1   1 0 0      0.021581      0.106833     -0.085252     -0.000000
     1   0 1 0     -0.340554     -1.694603      1.354049      0.000000
     1   0 0 1     -0.000001     -0.000001     -0.000000     -0.000000

     2   2 0 0    -22.668282   -108.564851   -106.579925    192.476493
     2   1 1 0      0.190314     -0.490518     -1.118463      1.799295
     2   1 0 1      0.000000     -0.000001     -0.000001      0.000002
     2   0 2 0    -25.676843   -100.810441    -88.898961    164.032559
     2   0 1 1     -0.000005     -0.000004     -0.000003      0.000001

  Root   1         a              0.106293784 a.u.                2.8924 eV
     Dipole Oscillator Strength                    0.0012112613
  Root   2         a              0.126063669 a.u.                3.4304 eV
     Dipole Oscillator Strength                    0.0000000000
  Root   3         a              0.143226797 a.u.                3.8974 eV
     Dipole Oscillator Strength                    0.0000121792
  Root   4         a              0.170398705 a.u.                4.6368 eV
     Dipole Oscillator Strength                    0.0000000000
  Root   5         a              0.171411623 a.u.                4.6643 eV
     Dipole Oscillator Strength                    0.0002490572
  Root   6         a              0.173942590 a.u.                4.7332 eV
     Dipole Oscillator Strength                    0.0037553041
  Root   7         a              0.177210027 a.u.                4.8221 eV
     Dipole Oscillator Strength                    0.0000130058
  Root   8         a              0.191913234 a.u.                5.2222 eV
     Dipole Oscillator Strength                    0.0006900486
  Root   9         a              0.201774333 a.u.                5.4906 eV
     Dipole Oscillator Strength                    0.0064715908
  Root  10         a              0.211027501 a.u.                5.7424 eV
     Dipole Oscillator Strength                    0.0075583200
  Root  11         a              0.215668623 a.u.                5.8686 eV
     Dipole Oscillator Strength                    0.0015007911
  Root  12         a              0.223037973 a.u.                6.0692 eV
     Dipole Oscillator Strength                    0.0002776717
  Root  13         a              0.224549890 a.u.                6.1103 eV
     Dipole Oscillator Strength                    0.0041235269
  Root  14         a              0.228571687 a.u.                6.2198 eV
     Dipole Oscillator Strength                    0.0092152994
  Root  15         a              0.228593409 a.u.                6.2203 eV
     Dipole Oscillator Strength                    0.0000000059
  Root  16         a              0.229659444 a.u.                6.2494 eV
     Dipole Oscillator Strength                    0.0009951459
  Root  17         a              0.229981616 a.u.                6.2581 eV
     Dipole Oscillator Strength                    0.0000000001
  Root  18         a              0.232246831 a.u.                6.3198 eV
     Dipole Oscillator Strength                    0.0225503628
  Root  19         a              0.235377622 a.u.                6.4050 eV
     Dipole Oscillator Strength                    0.0001693315
  Root  20         a              0.241719426 a.u.                6.5775 eV
     Dipole Oscillator Strength                    0.0000000001
  Root  21         a              0.242599353 a.u.                6.6015 eV
     Dipole Oscillator Strength                    0.0951502528
  Root  22         a              0.245274751 a.u.                6.6743 eV
     Dipole Oscillator Strength                    0.0018066177
  Root  23         a              0.246368085 a.u.                6.7040 eV
     Dipole Oscillator Strength                    0.0333289481
  Root  24         a              0.247300135 a.u.                6.7294 eV
     Dipole Oscillator Strength                    0.0013573442
  Root  25         a              0.248314346 a.u.                6.7570 eV
     Dipole Oscillator Strength                    0.0000000001
  Root  26         a              0.251185932 a.u.                6.8351 eV
     Dipole Oscillator Strength                    0.0473226410
  Root  27         a              0.251974148 a.u.                6.8566 eV
     Dipole Oscillator Strength                    0.0100857620
  Root  28         a              0.252621920 a.u.                6.8742 eV
     Dipole Oscillator Strength                    0.0000000008
  Root  29         a              0.253987416 a.u.                6.9114 eV
     Dipole Oscillator Strength                    0.0000000005
  Root  30         a              0.254757135 a.u.                6.9323 eV
     Dipole Oscillator Strength                    0.3853159508
  Root  31         a              0.255406381 a.u.                6.9500 eV
     Dipole Oscillator Strength                    0.0692325834
  Root  32         a              0.260753352 a.u.                7.0955 eV
     Dipole Oscillator Strength                    0.0015885565
  Root  33         a              0.265400683 a.u.                7.2219 eV
     Dipole Oscillator Strength                    0.0000000000
  Root  34         a              0.267190144 a.u.                7.2706 eV
     Dipole Oscillator Strength                    0.2578553186
  Root  35         a              0.270809655 a.u.                7.3691 eV
     Dipole Oscillator Strength                    0.0000164246
  Root  36         a              0.271253358 a.u.                7.3812 eV
     Dipole Oscillator Strength                    0.0004304098
  Root  37         a              0.271756342 a.u.                7.3949 eV
     Dipole Oscillator Strength                    0.0477282502
  Root  38         a              0.271808035 a.u.                7.3963 eV
     Dipole Oscillator Strength                    0.0001122875
  Root  39         a              0.272286609 a.u.                7.4093 eV
     Dipole Oscillator Strength                    0.0000000001
  Root  40         a              0.272509521 a.u.                7.4154 eV
     Dipole Oscillator Strength                    0.0003125151
 Total times  cpu:     7423.5s     wall:     7507.5s
