============================== echo of input deck ==============================
echo
start

memory stack 500 mb heap 500 mb global 1000 mb

title "None"

geometry
N    -0.03868077    0.00868624   -0.10905900
H     0.97396606    0.00441946   -0.05549692
H    -0.35089834    0.77598271    0.47585157
H    -0.35089832   -0.84152130    0.34701765
symmetry c1
end

basis spherical
 * library "cc-pVTZ"
end

driver
 maxiter 100
end

dft
 iterations 500
 xc b3lyp
end

tddft
 nroots 4
 notriplet
end

task tddft energy
================================================================================

 Output coordinates in angstroms (scale by  1.889725989 to convert to a.u.)

  No.       Tag          Charge          X              Y              Z
 ---- ---------------- ---------- -------------- -------------- --------------
    1 N                    7.0000    -0.03882117     0.00871779    -0.10945493
    2 H                    1.0000     0.97382566     0.00445101    -0.05589285
    3 H                    1.0000    -0.35103874     0.77601425     0.47545564
    4 H                    1.0000    -0.35103872    -0.84148976     0.34662172

         Total DFT energy =      -56.584723255182

                       DFT Final Molecular Orbital Analysis
                       ------------------------------------

 Vector    1  Occ=2.000000D+00  E=-1.428965D+01

 Vector    2  Occ=2.000000D+00  E=-8.506623D-01

 Vector    3  Occ=2.000000D+00  E=-4.587749D-01

 Vector    4  Occ=2.000000D+00  E=-4.587739D-01

 Vector    5  Occ=2.000000D+00  E=-2.663849D-01

 Vector    6  Occ=0.000000D+00  E= 2.961418D-02

 Vector    7  Occ=0.000000D+00  E= 1.101982D-01

 Vector    8  Occ=0.000000D+00  E= 1.101985D-01

 Vector    9  Occ=0.000000D+00  E= 3.204107D-01

 Vector   10  Occ=0.000000D+00  E= 3.204114D-01

 Vector   11  Occ=0.000000D+00  E= 4.237653D-01

 Vector   12  Occ=0.000000D+00  E= 4.547736D-01

 Vector   13  Occ=0.000000D+00  E= 5.295115D-01

 Vector   14  Occ=0.000000D+00  E= 5.295121D-01

 Vector   15  Occ=0.000000D+00  E= 5.703641D-01

 Vector   16  Occ=0.000000D+00  E= 5.703654D-01

 Vector   17  Occ=0.000000D+00  E= 6.132310D-01

 Vector   18  Occ=0.000000D+00  E= 9.294906D-01

 Vector   19  Occ=0.000000D+00  E= 9.459881D-01

 Vector   20  Occ=0.000000D+00  E= 1.020185D+00

 Vector   21  Occ=0.000000D+00  E= 1.020186D+00

 Vector   22  Occ=0.000000D+00  E= 1.218091D+00

 Vector   23  Occ=0.000000D+00  E= 1.218092D+00

 Vector   24  Occ=0.000000D+00  E= 1.349317D+00

 Vector   25  Occ=0.000000D+00  E= 1.517842D+00

 Vector   26  Occ=0.000000D+00  E= 1.517843D+00

 Vector   27  Occ=0.000000D+00  E= 1.546584D+00

 Vector   28  Occ=0.000000D+00  E= 1.546585D+00

 Vector   29  Occ=0.000000D+00  E= 1.627978D+00

 Vector   30  Occ=0.000000D+00  E= 2.271333D+00

 Vector   31  Occ=0.000000D+00  E= 2.271333D+00

 Vector   32  Occ=0.000000D+00  E= 2.343278D+00

 Vector   33  Occ=0.000000D+00  E= 3.001278D+00

 Vector   34  Occ=0.000000D+00  E= 3.132545D+00

 Vector   35  Occ=0.000000D+00  E= 3.146866D+00

 Vector   36  Occ=0.000000D+00  E= 3.146871D+00

 Vector   37  Occ=0.000000D+00  E= 3.212988D+00

 Vector   38  Occ=0.000000D+00  E= 3.228464D+00

 Vector   39  Occ=0.000000D+00  E= 3.228466D+00

 Vector   40  Occ=0.000000D+00  E= 3.394730D+00

 Vector   41  Occ=0.000000D+00  E= 3.444220D+00

 Vector   42  Occ=0.000000D+00  E= 3.444222D+00

 Vector   43  Occ=0.000000D+00  E= 3.465098D+00

 Vector   44  Occ=0.000000D+00  E= 3.465100D+00

 Vector   45  Occ=0.000000D+00  E= 3.644455D+00

 Vector   46  Occ=0.000000D+00  E= 3.644458D+00

 Vector   47  Occ=0.000000D+00  E= 3.663114D+00

 Vector   48  Occ=0.000000D+00  E= 3.804706D+00

 Vector   49  Occ=0.000000D+00  E= 3.896797D+00

 Vector   50  Occ=0.000000D+00  E= 3.896798D+00

 Vector   51  Occ=0.000000D+00  E= 4.065647D+00

 Vector   52  Occ=0.000000D+00  E= 4.065650D+00

 Vector   53  Occ=0.000000D+00  E= 4.198581D+00

 Vector   54  Occ=0.000000D+00  E= 4.198583D+00

 Vector   55  Occ=0.000000D+00  E= 4.287534D+00

 Vector   56  Occ=0.000000D+00  E= 4.327620D+00

 Vector   57  Occ=0.000000D+00  E= 4.668692D+00

 Vector   58  Occ=0.000000D+00  E= 4.841398D+00

 Vector   59  Occ=0.000000D+00  E= 4.841400D+00

 Vector   60  Occ=0.000000D+00  E= 4.925422D+00

 Vector   61  Occ=0.000000D+00  E= 5.335200D+00

 Vector   62  Occ=0.000000D+00  E= 5.335204D+00

 Vector   63  Occ=0.000000D+00  E= 5.488587D+00

 Vector   64  Occ=0.000000D+00  E= 5.771584D+00

 Vector   65  Occ=0.000000D+00  E= 5.771588D+00

 Vector   66  Occ=0.000000D+00  E= 5.855875D+00

 Vector   67  Occ=0.000000D+00  E= 5.923554D+00

 Vector   68  Occ=0.000000D+00  E= 5.936872D+00

 Vector   69  Occ=0.000000D+00  E= 5.936875D+00

 Vector   70  Occ=0.000000D+00  E= 6.799445D+00

 Vector   71  Occ=0.000000D+00  E= 6.799449D+00

 Vector   72  Occ=0.000000D+00  E= 1.322994D+01

     Multipole analysis of the density
     ---------------------------------

     L   x y z        total         alpha         beta         nuclear
     -   - - -        -----         -----         ----         -------
     0   0 0 0     -0.000000     -5.000000     -5.000000     10.000000

     1   1 0 0      0.208966      0.104483      0.104483     -0.000000
     1   0 1 0     -0.046927     -0.023464     -0.023464      0.000000
     1   0 0 1      0.589175      0.294587      0.294587      0.000000

     2   2 0 0     -4.876739     -4.590547     -4.590547      4.304355
     2   1 1 0      0.050864     -0.019117     -0.019117      0.089098
     2   1 0 1     -0.638621      0.240037      0.240037     -1.118696
     2   0 2 0     -4.661645     -4.671396     -4.671396      4.681147
     2   0 1 1      0.143419     -0.053909     -0.053909      0.251237

  Root   1 singlet a              0.247192923 a.u.                6.7265 eV
     Dipole Oscillator Strength                    0.0520061121
  Root   2 singlet a              0.324253360 a.u.                8.8234 eV
     Dipole Oscillator Strength                    0.0203840027
  Root   3 singlet a              0.324253637 a.u.                8.8234 eV
     Dipole Oscillator Strength                    0.0203838550
  Root   4 singlet a              0.442094207 a.u.               12.0300 eV
     Dipole Oscillator Strength                    0.1721887606
 Total times  cpu:        6.8s     wall:        8.4s
