============================== echo of input deck ==============================
echo
start

memory stack 500 mb heap 500 mb global 1000 mb

title "None"

geometry
N    -0.03874998    0.00883629   -0.10837237
H     0.97384779    0.00224873   -0.05746859
H    -0.35170488    0.77867455    0.47204111
H    -0.34901141   -0.84412720    0.34325916
symmetry c1
end

basis spherical
 * library "cc-pVTZ"
end

driver
 maxiter 100
end

dft
 iterations 500
 xc b3lyp
end

tddft
 nroots 4
 notriplet
end

task tddft energy
================================================================================

 Output coordinates in angstroms (scale by  1.889725989 to convert to a.u.)

  No.       Tag          Charge          X              Y              Z
 ---- ---------------- ---------- -------------- -------------- --------------
    1 N                    7.0000    -0.03893814     0.00897128    -0.10829488
    2 H                    1.0000     0.97365963     0.00238372    -0.05739110
    3 H                    1.0000    -0.35189304     0.77880954     0.47211860
    4 H                    1.0000    -0.34919957    -0.84399221     0.34333665

         Total DFT energy =      -56.584720184527

                       DFT Final Molecular Orbital Analysis
                       ------------------------------------

 Vector    1  Occ=2.000000D+00  E=-1.428937D+01

 Vector    2  Occ=2.000000D+00  E=-8.503579D-01

 Vector    3  Occ=2.000000D+00  E=-4.598968D-01

 Vector    4  Occ=2.000000D+00  E=-4.583210D-01

 Vector    5  Occ=2.000000D+00  E=-2.657842D-01

 Vector    6  Occ=0.000000D+00  E= 2.974946D-02

 Vector    7  Occ=0.000000D+00  E= 1.102001D-01

 Vector    8  Occ=0.000000D+00  E= 1.103335D-01

 Vector    9  Occ=0.000000D+00  E= 3.199506D-01

 Vector   10  Occ=0.000000D+00  E= 3.212551D-01

 Vector   11  Occ=0.000000D+00  E= 4.243666D-01

 Vector   12  Occ=0.000000D+00  E= 4.538522D-01

 Vector   13  Occ=0.000000D+00  E= 5.293998D-01

 Vector   14  Occ=0.000000D+00  E= 5.298074D-01

 Vector   15  Occ=0.000000D+00  E= 5.700139D-01

 Vector   16  Occ=0.000000D+00  E= 5.717589D-01

 Vector   17  Occ=0.000000D+00  E= 6.128534D-01

 Vector   18  Occ=0.000000D+00  E= 9.288441D-01

 Vector   19  Occ=0.000000D+00  E= 9.478512D-01

 Vector   20  Occ=0.000000D+00  E= 1.019488D+00

 Vector   21  Occ=0.000000D+00  E= 1.020966D+00

 Vector   22  Occ=0.000000D+00  E= 1.217919D+00

 Vector   23  Occ=0.000000D+00  E= 1.219389D+00

 Vector   24  Occ=0.000000D+00  E= 1.347391D+00

 Vector   25  Occ=0.000000D+00  E= 1.516929D+00

 Vector   26  Occ=0.000000D+00  E= 1.517840D+00

 Vector   27  Occ=0.000000D+00  E= 1.547345D+00

 Vector   28  Occ=0.000000D+00  E= 1.547926D+00

 Vector   29  Occ=0.000000D+00  E= 1.629685D+00

 Vector   30  Occ=0.000000D+00  E= 2.271224D+00

 Vector   31  Occ=0.000000D+00  E= 2.272102D+00

 Vector   32  Occ=0.000000D+00  E= 2.340700D+00

 Vector   33  Occ=0.000000D+00  E= 3.004796D+00

 Vector   34  Occ=0.000000D+00  E= 3.130470D+00

 Vector   35  Occ=0.000000D+00  E= 3.144455D+00

 Vector   36  Occ=0.000000D+00  E= 3.150965D+00

 Vector   37  Occ=0.000000D+00  E= 3.212714D+00

 Vector   38  Occ=0.000000D+00  E= 3.224521D+00

 Vector   39  Occ=0.000000D+00  E= 3.227233D+00

 Vector   40  Occ=0.000000D+00  E= 3.392701D+00

 Vector   41  Occ=0.000000D+00  E= 3.444503D+00

 Vector   42  Occ=0.000000D+00  E= 3.446724D+00

 Vector   43  Occ=0.000000D+00  E= 3.467839D+00

 Vector   44  Occ=0.000000D+00  E= 3.468043D+00

 Vector   45  Occ=0.000000D+00  E= 3.643555D+00

 Vector   46  Occ=0.000000D+00  E= 3.646770D+00

 Vector   47  Occ=0.000000D+00  E= 3.666607D+00

 Vector   48  Occ=0.000000D+00  E= 3.804488D+00

 Vector   49  Occ=0.000000D+00  E= 3.898655D+00

 Vector   50  Occ=0.000000D+00  E= 3.900857D+00

 Vector   51  Occ=0.000000D+00  E= 4.064454D+00

 Vector   52  Occ=0.000000D+00  E= 4.067089D+00

 Vector   53  Occ=0.000000D+00  E= 4.198632D+00

 Vector   54  Occ=0.000000D+00  E= 4.201775D+00

 Vector   55  Occ=0.000000D+00  E= 4.283487D+00

 Vector   56  Occ=0.000000D+00  E= 4.321959D+00

 Vector   57  Occ=0.000000D+00  E= 4.662831D+00

 Vector   58  Occ=0.000000D+00  E= 4.838958D+00

 Vector   59  Occ=0.000000D+00  E= 4.840721D+00

 Vector   60  Occ=0.000000D+00  E= 4.932291D+00

 Vector   61  Occ=0.000000D+00  E= 5.336027D+00

 Vector   62  Occ=0.000000D+00  E= 5.339775D+00

 Vector   63  Occ=0.000000D+00  E= 5.493095D+00

 Vector   64  Occ=0.000000D+00  E= 5.763716D+00

 Vector   65  Occ=0.000000D+00  E= 5.770953D+00

 Vector   66  Occ=0.000000D+00  E= 5.857060D+00

 Vector   67  Occ=0.000000D+00  E= 5.930354D+00

 Vector   68  Occ=0.000000D+00  E= 5.936038D+00

 Vector   69  Occ=0.000000D+00  E= 5.939380D+00

 Vector   70  Occ=0.000000D+00  E= 6.794793D+00

 Vector   71  Occ=0.000000D+00  E= 6.799861D+00

 Vector   72  Occ=0.000000D+00  E= 1.324371D+01

     Multipole analysis of the density
     ---------------------------------

     L   x y z        total         alpha         beta         nuclear
     -   - - -        -----         -----         ----         -------
     0   0 0 0     -0.000000     -5.000000     -5.000000     10.000000

     1   1 0 0      0.208608      0.104304      0.104304      0.000000
     1   0 1 0     -0.047358     -0.023679     -0.023679     -0.000000
     1   0 0 1      0.584785      0.292393      0.292393      0.000000

     2   2 0 0     -4.877134     -4.589054     -4.589054      4.300973
     2   1 1 0      0.043560     -0.014894     -0.014894      0.073349
     2   1 0 1     -0.637423      0.239071      0.239071     -1.115565
     2   0 2 0     -4.645289     -4.678540     -4.678540      4.711792
     2   0 1 1      0.145023     -0.054225     -0.054225      0.253472

  Root   1 singlet a              0.246729325 a.u.                6.7138 eV
     Dipole Oscillator Strength                    0.0515749096
  Root   2 singlet a              0.323628311 a.u.                8.8064 eV
     Dipole Oscillator Strength                    0.0201790947
  Root   3 singlet a              0.323699975 a.u.                8.8083 eV
     Dipole Oscillator Strength                    0.0200012527
  Root   4 singlet a              0.441792167 a.u.               12.0218 eV
     Dipole Oscillator Strength                    0.1720674117
 Total times  cpu:        6.9s     wall:        8.7s
