============================== echo of input deck ==============================
echo
start

memory stack 500 mb heap 500 mb global 1000 mb

title "None"

geometry
N    -0.03828464    0.00893447   -0.10852962
H     0.97420298    0.00144890   -0.05965386
H    -0.35567870    0.77552914    0.47389877
H    -0.35185833   -0.84154608    0.34577127
symmetry c1
end

basis spherical
 * library "cc-pVTZ"
end

driver
 maxiter 100
end

dft
 iterations 500
 xc b3lyp
end

tddft
 nroots 4
 notriplet
end

task tddft energy
================================================================================

 Output coordinates in angstroms (scale by  1.889725989 to convert to a.u.)

  No.       Tag          Charge          X              Y              Z
 ---- ---------------- ---------- -------------- -------------- --------------
    1 N                    7.0000    -0.03815199     0.00913714    -0.10856050
    2 H                    1.0000     0.97433563     0.00165157    -0.05968474
    3 H                    1.0000    -0.35554605     0.77573182     0.47386789
    4 H                    1.0000    -0.35172568    -0.84134341     0.34574039

         Total DFT energy =      -56.584719962213

                       DFT Final Molecular Orbital Analysis
                       ------------------------------------

 Vector    1  Occ=2.000000D+00  E=-1.428937D+01

 Vector    2  Occ=2.000000D+00  E=-8.503578D-01

 Vector    3  Occ=2.000000D+00  E=-4.598937D-01

 Vector    4  Occ=2.000000D+00  E=-4.583240D-01

 Vector    5  Occ=2.000000D+00  E=-2.657840D-01

 Vector    6  Occ=0.000000D+00  E= 2.974946D-02

 Vector    7  Occ=0.000000D+00  E= 1.102003D-01

 Vector    8  Occ=0.000000D+00  E= 1.103333D-01

 Vector    9  Occ=0.000000D+00  E= 3.199468D-01

 Vector   10  Occ=0.000000D+00  E= 3.212589D-01

 Vector   11  Occ=0.000000D+00  E= 4.243667D-01

 Vector   12  Occ=0.000000D+00  E= 4.538529D-01

 Vector   13  Occ=0.000000D+00  E= 5.293969D-01

 Vector   14  Occ=0.000000D+00  E= 5.298100D-01

 Vector   15  Occ=0.000000D+00  E= 5.700127D-01

 Vector   16  Occ=0.000000D+00  E= 5.717599D-01

 Vector   17  Occ=0.000000D+00  E= 6.128535D-01

 Vector   18  Occ=0.000000D+00  E= 9.288440D-01

 Vector   19  Occ=0.000000D+00  E= 9.478519D-01

 Vector   20  Occ=0.000000D+00  E= 1.019508D+00

 Vector   21  Occ=0.000000D+00  E= 1.020946D+00

 Vector   22  Occ=0.000000D+00  E= 1.217918D+00

 Vector   23  Occ=0.000000D+00  E= 1.219391D+00

 Vector   24  Occ=0.000000D+00  E= 1.347392D+00

 Vector   25  Occ=0.000000D+00  E= 1.516929D+00

 Vector   26  Occ=0.000000D+00  E= 1.517840D+00

 Vector   27  Occ=0.000000D+00  E= 1.547394D+00

 Vector   28  Occ=0.000000D+00  E= 1.547877D+00

 Vector   29  Occ=0.000000D+00  E= 1.629686D+00

 Vector   30  Occ=0.000000D+00  E= 2.271217D+00

 Vector   31  Occ=0.000000D+00  E= 2.272108D+00

 Vector   32  Occ=0.000000D+00  E= 2.340701D+00

 Vector   33  Occ=0.000000D+00  E= 3.004796D+00

 Vector   34  Occ=0.000000D+00  E= 3.130472D+00

 Vector   35  Occ=0.000000D+00  E= 3.144436D+00

 Vector   36  Occ=0.000000D+00  E= 3.150982D+00

 Vector   37  Occ=0.000000D+00  E= 3.212706D+00

 Vector   38  Occ=0.000000D+00  E= 3.224507D+00

 Vector   39  Occ=0.000000D+00  E= 3.227254D+00

 Vector   40  Occ=0.000000D+00  E= 3.392701D+00

 Vector   41  Occ=0.000000D+00  E= 3.444498D+00

 Vector   42  Occ=0.000000D+00  E= 3.446729D+00

 Vector   43  Occ=0.000000D+00  E= 3.467869D+00

 Vector   44  Occ=0.000000D+00  E= 3.468012D+00

 Vector   45  Occ=0.000000D+00  E= 3.643634D+00

 Vector   46  Occ=0.000000D+00  E= 3.646677D+00

 Vector   47  Occ=0.000000D+00  E= 3.666620D+00

 Vector   48  Occ=0.000000D+00  E= 3.804489D+00

 Vector   49  Occ=0.000000D+00  E= 3.898656D+00

 Vector   50  Occ=0.000000D+00  E= 3.900854D+00

 Vector   51  Occ=0.000000D+00  E= 4.064414D+00

 Vector   52  Occ=0.000000D+00  E= 4.067130D+00

 Vector   53  Occ=0.000000D+00  E= 4.198623D+00

 Vector   54  Occ=0.000000D+00  E= 4.201784D+00

 Vector   55  Occ=0.000000D+00  E= 4.283487D+00

 Vector   56  Occ=0.000000D+00  E= 4.321960D+00

 Vector   57  Occ=0.000000D+00  E= 4.662832D+00

 Vector   58  Occ=0.000000D+00  E= 4.838919D+00

 Vector   59  Occ=0.000000D+00  E= 4.840761D+00

 Vector   60  Occ=0.000000D+00  E= 4.932290D+00

 Vector   61  Occ=0.000000D+00  E= 5.336068D+00

 Vector   62  Occ=0.000000D+00  E= 5.339733D+00

 Vector   63  Occ=0.000000D+00  E= 5.493095D+00

 Vector   64  Occ=0.000000D+00  E= 5.763783D+00

 Vector   65  Occ=0.000000D+00  E= 5.770886D+00

 Vector   66  Occ=0.000000D+00  E= 5.857060D+00

 Vector   67  Occ=0.000000D+00  E= 5.930629D+00

 Vector   68  Occ=0.000000D+00  E= 5.935265D+00

 Vector   69  Occ=0.000000D+00  E= 5.939877D+00

 Vector   70  Occ=0.000000D+00  E= 6.794782D+00

 Vector   71  Occ=0.000000D+00  E= 6.799873D+00

 Vector   72  Occ=0.000000D+00  E= 1.324371D+01

     Multipole analysis of the density
     ---------------------------------

     L   x y z        total         alpha         beta         nuclear
     -   - - -        -----         -----         ----         -------
     0   0 0 0     -0.000000     -5.000000     -5.000000     10.000000

     1   1 0 0      0.206824      0.103412      0.103412      0.000000
     1   0 1 0     -0.047741     -0.023870     -0.023870     -0.000000
     1   0 0 1      0.585388      0.292694      0.292694      0.000000

     2   2 0 0     -4.867006     -4.593359     -4.593359      4.319713
     2   1 1 0      0.041393     -0.013733     -0.013733      0.068860
     2   1 0 1     -0.647818      0.246119      0.246119     -1.140055
     2   0 2 0     -4.661195     -4.670012     -4.670012      4.678829
     2   0 1 1      0.143133     -0.052824     -0.052824      0.248781

  Root   1 singlet a              0.246729155 a.u.                6.7138 eV
     Dipole Oscillator Strength                    0.0515748362
  Root   2 singlet a              0.323628374 a.u.                8.8064 eV
     Dipole Oscillator Strength                    0.0201798643
  Root   3 singlet a              0.323699561 a.u.                8.8083 eV
     Dipole Oscillator Strength                    0.0200005262
  Root   4 singlet a              0.441795052 a.u.               12.0219 eV
     Dipole Oscillator Strength                    0.1720617784
 Total times  cpu:        6.7s     wall:        7.2s
