============================== echo of input deck ==============================
echo
start

memory stack 500 mb heap 500 mb global 1000 mb

title "None"

geometry
N    -0.03820416    0.00844475   -0.10859715
H     0.97426445    0.00707189   -0.05957299
H    -0.35301180    0.77557793    0.47485765
H    -0.35570523   -0.84041318    0.34567030
symmetry c1
end

basis spherical
 * library "cc-pVTZ"
end

driver
 maxiter 100
end

dft
 iterations 500
 xc b3lyp
end

tddft
 nroots 4
 notriplet
end

task tddft energy
================================================================================

 Output coordinates in angstroms (scale by  1.889725989 to convert to a.u.)

  No.       Tag          Charge          X              Y              Z
 ---- ---------------- ---------- -------------- -------------- --------------
    1 N                    7.0000    -0.03801599     0.00830976    -0.10867464
    2 H                    1.0000     0.97445262     0.00693690    -0.05965048
    3 H                    1.0000    -0.35282363     0.77544294     0.47478016
    4 H                    1.0000    -0.35551706    -0.84054817     0.34559281

         Total DFT energy =      -56.584720227759

                       DFT Final Molecular Orbital Analysis
                       ------------------------------------

 Vector    1  Occ=2.000000D+00  E=-1.428937D+01

 Vector    2  Occ=2.000000D+00  E=-8.503579D-01

 Vector    3  Occ=2.000000D+00  E=-4.598952D-01

 Vector    4  Occ=2.000000D+00  E=-4.583226D-01

 Vector    5  Occ=2.000000D+00  E=-2.657842D-01

 Vector    6  Occ=0.000000D+00  E= 2.974947D-02

 Vector    7  Occ=0.000000D+00  E= 1.102004D-01

 Vector    8  Occ=0.000000D+00  E= 1.103332D-01

 Vector    9  Occ=0.000000D+00  E= 3.199492D-01

 Vector   10  Occ=0.000000D+00  E= 3.212565D-01

 Vector   11  Occ=0.000000D+00  E= 4.243665D-01

 Vector   12  Occ=0.000000D+00  E= 4.538523D-01

 Vector   13  Occ=0.000000D+00  E= 5.293990D-01

 Vector   14  Occ=0.000000D+00  E= 5.298080D-01

 Vector   15  Occ=0.000000D+00  E= 5.700138D-01

 Vector   16  Occ=0.000000D+00  E= 5.717588D-01

 Vector   17  Occ=0.000000D+00  E= 6.128535D-01

 Vector   18  Occ=0.000000D+00  E= 9.288441D-01

 Vector   19  Occ=0.000000D+00  E= 9.478512D-01

 Vector   20  Occ=0.000000D+00  E= 1.019497D+00

 Vector   21  Occ=0.000000D+00  E= 1.020957D+00

 Vector   22  Occ=0.000000D+00  E= 1.217918D+00

 Vector   23  Occ=0.000000D+00  E= 1.219390D+00

 Vector   24  Occ=0.000000D+00  E= 1.347391D+00

 Vector   25  Occ=0.000000D+00  E= 1.516929D+00

 Vector   26  Occ=0.000000D+00  E= 1.517840D+00

 Vector   27  Occ=0.000000D+00  E= 1.547365D+00

 Vector   28  Occ=0.000000D+00  E= 1.547906D+00

 Vector   29  Occ=0.000000D+00  E= 1.629685D+00

 Vector   30  Occ=0.000000D+00  E= 2.271221D+00

 Vector   31  Occ=0.000000D+00  E= 2.272104D+00

 Vector   32  Occ=0.000000D+00  E= 2.340700D+00

 Vector   33  Occ=0.000000D+00  E= 3.004796D+00

 Vector   34  Occ=0.000000D+00  E= 3.130471D+00

 Vector   35  Occ=0.000000D+00  E= 3.144450D+00

 Vector   36  Occ=0.000000D+00  E= 3.150969D+00

 Vector   37  Occ=0.000000D+00  E= 3.212710D+00

 Vector   38  Occ=0.000000D+00  E= 3.224516D+00

 Vector   39  Occ=0.000000D+00  E= 3.227241D+00

 Vector   40  Occ=0.000000D+00  E= 3.392701D+00

 Vector   41  Occ=0.000000D+00  E= 3.444500D+00

 Vector   42  Occ=0.000000D+00  E= 3.446727D+00

 Vector   43  Occ=0.000000D+00  E= 3.467852D+00

 Vector   44  Occ=0.000000D+00  E= 3.468030D+00

 Vector   45  Occ=0.000000D+00  E= 3.643590D+00

 Vector   46  Occ=0.000000D+00  E= 3.646729D+00

 Vector   47  Occ=0.000000D+00  E= 3.666613D+00

 Vector   48  Occ=0.000000D+00  E= 3.804488D+00

 Vector   49  Occ=0.000000D+00  E= 3.898655D+00

 Vector   50  Occ=0.000000D+00  E= 3.900855D+00

 Vector   51  Occ=0.000000D+00  E= 4.064437D+00

 Vector   52  Occ=0.000000D+00  E= 4.067106D+00

 Vector   53  Occ=0.000000D+00  E= 4.198628D+00

 Vector   54  Occ=0.000000D+00  E= 4.201779D+00

 Vector   55  Occ=0.000000D+00  E= 4.283487D+00

 Vector   56  Occ=0.000000D+00  E= 4.321959D+00

 Vector   57  Occ=0.000000D+00  E= 4.662831D+00

 Vector   58  Occ=0.000000D+00  E= 4.838940D+00

 Vector   59  Occ=0.000000D+00  E= 4.840739D+00

 Vector   60  Occ=0.000000D+00  E= 4.932291D+00

 Vector   61  Occ=0.000000D+00  E= 5.336047D+00

 Vector   62  Occ=0.000000D+00  E= 5.339754D+00

 Vector   63  Occ=0.000000D+00  E= 5.493095D+00

 Vector   64  Occ=0.000000D+00  E= 5.763747D+00

 Vector   65  Occ=0.000000D+00  E= 5.770923D+00

 Vector   66  Occ=0.000000D+00  E= 5.857060D+00

 Vector   67  Occ=0.000000D+00  E= 5.930470D+00

 Vector   68  Occ=0.000000D+00  E= 5.935685D+00

 Vector   69  Occ=0.000000D+00  E= 5.939616D+00

 Vector   70  Occ=0.000000D+00  E= 6.794792D+00

 Vector   71  Occ=0.000000D+00  E= 6.799862D+00

 Vector   72  Occ=0.000000D+00  E= 1.324371D+01

     Multipole analysis of the density
     ---------------------------------

     L   x y z        total         alpha         beta         nuclear
     -   - - -        -----         -----         ----         -------
     0   0 0 0     -0.000000     -5.000000     -5.000000     10.000000

     1   1 0 0      0.206518      0.103259      0.103259      0.000000
     1   0 1 0     -0.045859     -0.022930     -0.022930      0.000000
     1   0 0 1      0.585646      0.292823      0.292823      0.000000

     2   2 0 0     -4.865249     -4.594103     -4.594103      4.322957
     2   1 1 0      0.058819     -0.023769     -0.023769      0.106357
     2   1 0 1     -0.648203      0.246527      0.246527     -1.141258
     2   0 2 0     -4.664095     -4.668174     -4.668174      4.672254
     2   0 1 1      0.143694     -0.054823     -0.054823      0.253340

  Root   1 singlet a              0.246729340 a.u.                6.7138 eV
     Dipole Oscillator Strength                    0.0515749126
  Root   2 singlet a              0.323628650 a.u.                8.8064 eV
     Dipole Oscillator Strength                    0.0201792473
  Root   3 singlet a              0.323699665 a.u.                8.8083 eV
     Dipole Oscillator Strength                    0.0200010920
  Root   4 singlet a              0.441793759 a.u.               12.0218 eV
     Dipole Oscillator Strength                    0.1720662050
 Total times  cpu:        6.8s     wall:        8.5s
