============================== echo of input deck ==============================
echo
start

memory stack 500 mb heap 500 mb global 1000 mb

title "None"

geometry
N    -0.03866950    0.00834657   -0.10843990
H     0.97390926    0.00787172   -0.05738772
H    -0.34903798    0.77872334    0.47299999
H    -0.35285831   -0.84299430    0.34315819
symmetry c1
end

basis spherical
 * library "cc-pVTZ"
end

driver
 maxiter 100
end

dft
 iterations 500
 xc b3lyp
end

tddft
 nroots 4
 notriplet
end

task tddft energy
================================================================================

 Output coordinates in angstroms (scale by  1.889725989 to convert to a.u.)

  No.       Tag          Charge          X              Y              Z
 ---- ---------------- ---------- -------------- -------------- --------------
    1 N                    7.0000    -0.03880215     0.00814389    -0.10840902
    2 H                    1.0000     0.97377661     0.00766905    -0.05735684
    3 H                    1.0000    -0.34917063     0.77852066     0.47303087
    4 H                    1.0000    -0.35299096    -0.84319697     0.34318907

         Total DFT energy =      -56.584719972049

                       DFT Final Molecular Orbital Analysis
                       ------------------------------------

 Vector    1  Occ=2.000000D+00  E=-1.428937D+01

 Vector    2  Occ=2.000000D+00  E=-8.503578D-01

 Vector    3  Occ=2.000000D+00  E=-4.598982D-01

 Vector    4  Occ=2.000000D+00  E=-4.583195D-01

 Vector    5  Occ=2.000000D+00  E=-2.657840D-01

 Vector    6  Occ=0.000000D+00  E= 2.974945D-02

 Vector    7  Occ=0.000000D+00  E= 1.102002D-01

 Vector    8  Occ=0.000000D+00  E= 1.103334D-01

 Vector    9  Occ=0.000000D+00  E= 3.199531D-01

 Vector   10  Occ=0.000000D+00  E= 3.212526D-01

 Vector   11  Occ=0.000000D+00  E= 4.243667D-01

 Vector   12  Occ=0.000000D+00  E= 4.538524D-01

 Vector   13  Occ=0.000000D+00  E= 5.294019D-01

 Vector   14  Occ=0.000000D+00  E= 5.298054D-01

 Vector   15  Occ=0.000000D+00  E= 5.700152D-01

 Vector   16  Occ=0.000000D+00  E= 5.717579D-01

 Vector   17  Occ=0.000000D+00  E= 6.128533D-01

 Vector   18  Occ=0.000000D+00  E= 9.288443D-01

 Vector   19  Occ=0.000000D+00  E= 9.478518D-01

 Vector   20  Occ=0.000000D+00  E= 1.019478D+00

 Vector   21  Occ=0.000000D+00  E= 1.020976D+00

 Vector   22  Occ=0.000000D+00  E= 1.217919D+00

 Vector   23  Occ=0.000000D+00  E= 1.219389D+00

 Vector   24  Occ=0.000000D+00  E= 1.347392D+00

 Vector   25  Occ=0.000000D+00  E= 1.516929D+00

 Vector   26  Occ=0.000000D+00  E= 1.517840D+00

 Vector   27  Occ=0.000000D+00  E= 1.547320D+00

 Vector   28  Occ=0.000000D+00  E= 1.547951D+00

 Vector   29  Occ=0.000000D+00  E= 1.629686D+00

 Vector   30  Occ=0.000000D+00  E= 2.271229D+00

 Vector   31  Occ=0.000000D+00  E= 2.272098D+00

 Vector   32  Occ=0.000000D+00  E= 2.340700D+00

 Vector   33  Occ=0.000000D+00  E= 3.004796D+00

 Vector   34  Occ=0.000000D+00  E= 3.130469D+00

 Vector   35  Occ=0.000000D+00  E= 3.144469D+00

 Vector   36  Occ=0.000000D+00  E= 3.150952D+00

 Vector   37  Occ=0.000000D+00  E= 3.212719D+00

 Vector   38  Occ=0.000000D+00  E= 3.224529D+00

 Vector   39  Occ=0.000000D+00  E= 3.227219D+00

 Vector   40  Occ=0.000000D+00  E= 3.392702D+00

 Vector   41  Occ=0.000000D+00  E= 3.444505D+00

 Vector   42  Occ=0.000000D+00  E= 3.446721D+00

 Vector   43  Occ=0.000000D+00  E= 3.467826D+00

 Vector   44  Occ=0.000000D+00  E= 3.468056D+00

 Vector   45  Occ=0.000000D+00  E= 3.643513D+00

 Vector   46  Occ=0.000000D+00  E= 3.646819D+00

 Vector   47  Occ=0.000000D+00  E= 3.666600D+00

 Vector   48  Occ=0.000000D+00  E= 3.804488D+00

 Vector   49  Occ=0.000000D+00  E= 3.898654D+00

 Vector   50  Occ=0.000000D+00  E= 3.900858D+00

 Vector   51  Occ=0.000000D+00  E= 4.064479D+00

 Vector   52  Occ=0.000000D+00  E= 4.067064D+00

 Vector   53  Occ=0.000000D+00  E= 4.198637D+00

 Vector   54  Occ=0.000000D+00  E= 4.201770D+00

 Vector   55  Occ=0.000000D+00  E= 4.283487D+00

 Vector   56  Occ=0.000000D+00  E= 4.321960D+00

 Vector   57  Occ=0.000000D+00  E= 4.662831D+00

 Vector   58  Occ=0.000000D+00  E= 4.838981D+00

 Vector   59  Occ=0.000000D+00  E= 4.840698D+00

 Vector   60  Occ=0.000000D+00  E= 4.932292D+00

 Vector   61  Occ=0.000000D+00  E= 5.336006D+00

 Vector   62  Occ=0.000000D+00  E= 5.339795D+00

 Vector   63  Occ=0.000000D+00  E= 5.493095D+00

 Vector   64  Occ=0.000000D+00  E= 5.763680D+00

 Vector   65  Occ=0.000000D+00  E= 5.770988D+00

 Vector   66  Occ=0.000000D+00  E= 5.857060D+00

 Vector   67  Occ=0.000000D+00  E= 5.930218D+00

 Vector   68  Occ=0.000000D+00  E= 5.936573D+00

 Vector   69  Occ=0.000000D+00  E= 5.938981D+00

 Vector   70  Occ=0.000000D+00  E= 6.794803D+00

 Vector   71  Occ=0.000000D+00  E= 6.799850D+00

 Vector   72  Occ=0.000000D+00  E= 1.324372D+01

     Multipole analysis of the density
     ---------------------------------

     L   x y z        total         alpha         beta         nuclear
     -   - - -        -----         -----         ----         -------
     0   0 0 0     -0.000000     -5.000000     -5.000000     10.000000

     1   1 0 0      0.208297      0.104149      0.104149     -0.000000
     1   0 1 0     -0.045490     -0.022745     -0.022745      0.000000
     1   0 0 1      0.585045      0.292522      0.292522      0.000000

     2   2 0 0     -4.875385     -4.589799     -4.589799      4.304214
     2   1 1 0      0.061020     -0.024949     -0.024949      0.110918
     2   1 0 1     -0.637798      0.239470      0.239470     -1.116737
     2   0 2 0     -4.648179     -4.676704     -4.676704      4.705229
     2   0 1 1      0.145588     -0.056243     -0.056243      0.258075

  Root   1 singlet a              0.246729154 a.u.                6.7138 eV
     Dipole Oscillator Strength                    0.0515748421
  Root   2 singlet a              0.323628231 a.u.                8.8064 eV
     Dipole Oscillator Strength                    0.0201785369
  Root   3 singlet a              0.323699721 a.u.                8.8083 eV
     Dipole Oscillator Strength                    0.0200018482
  Root   4 singlet a              0.441790798 a.u.               12.0217 eV
     Dipole Oscillator Strength                    0.1720718561
 Total times  cpu:        6.6s     wall:        7.2s
