============================== echo of input deck ==============================
echo
start

memory stack 500 mb heap 500 mb global 1000 mb

title "None"

geometry
N    -0.03827337    0.00859480   -0.10791052
H     0.97414618    0.00490116   -0.06154466
H    -0.35381834    0.77826977    0.47104719
H    -0.35381832   -0.84301908    0.34191181
symmetry c1
end

basis spherical
 * library "cc-pVTZ"
end

driver
 maxiter 100
end

dft
 iterations 500
 xc b3lyp
end

tddft
 nroots 4
 notriplet
end

task tddft energy
================================================================================

 Output coordinates in angstroms (scale by  1.889725989 to convert to a.u.)

  No.       Tag          Charge          X              Y              Z
 ---- ---------------- ---------- -------------- -------------- --------------
    1 N                    7.0000    -0.03813296     0.00856326    -0.10751459
    2 H                    1.0000     0.97428659     0.00486962    -0.06114873
    3 H                    1.0000    -0.35367793     0.77823822     0.47144312
    4 H                    1.0000    -0.35367791    -0.84305063     0.34230774

         Total DFT energy =      -56.584723356990

                       DFT Final Molecular Orbital Analysis
                       ------------------------------------

 Vector    1  Occ=2.000000D+00  E=-1.428909D+01

 Vector    2  Occ=2.000000D+00  E=-8.500527D-01

 Vector    3  Occ=2.000000D+00  E=-4.594418D-01

 Vector    4  Occ=2.000000D+00  E=-4.594408D-01

 Vector    5  Occ=2.000000D+00  E=-2.651891D-01

 Vector    6  Occ=0.000000D+00  E= 2.988513D-02

 Vector    7  Occ=0.000000D+00  E= 1.103359D-01

 Vector    8  Occ=0.000000D+00  E= 1.103362D-01

 Vector    9  Occ=0.000000D+00  E= 3.207912D-01

 Vector   10  Occ=0.000000D+00  E= 3.207919D-01

 Vector   11  Occ=0.000000D+00  E= 4.249530D-01

 Vector   12  Occ=0.000000D+00  E= 4.529663D-01

 Vector   13  Occ=0.000000D+00  E= 5.297015D-01

 Vector   14  Occ=0.000000D+00  E= 5.297021D-01

 Vector   15  Occ=0.000000D+00  E= 5.714040D-01

 Vector   16  Occ=0.000000D+00  E= 5.714054D-01

 Vector   17  Occ=0.000000D+00  E= 6.124521D-01

 Vector   18  Occ=0.000000D+00  E= 9.282316D-01

 Vector   19  Occ=0.000000D+00  E= 9.496999D-01

 Vector   20  Occ=0.000000D+00  E= 1.020267D+00

 Vector   21  Occ=0.000000D+00  E= 1.020269D+00

 Vector   22  Occ=0.000000D+00  E= 1.219217D+00

 Vector   23  Occ=0.000000D+00  E= 1.219219D+00

 Vector   24  Occ=0.000000D+00  E= 1.345446D+00

 Vector   25  Occ=0.000000D+00  E= 1.516875D+00

 Vector   26  Occ=0.000000D+00  E= 1.516876D+00

 Vector   27  Occ=0.000000D+00  E= 1.548779D+00

 Vector   28  Occ=0.000000D+00  E= 1.548780D+00

 Vector   29  Occ=0.000000D+00  E= 1.631324D+00

 Vector   30  Occ=0.000000D+00  E= 2.272050D+00

 Vector   31  Occ=0.000000D+00  E= 2.272050D+00

 Vector   32  Occ=0.000000D+00  E= 2.338045D+00

 Vector   33  Occ=0.000000D+00  E= 3.008229D+00

 Vector   34  Occ=0.000000D+00  E= 3.128602D+00

 Vector   35  Occ=0.000000D+00  E= 3.148548D+00

 Vector   36  Occ=0.000000D+00  E= 3.148553D+00

 Vector   37  Occ=0.000000D+00  E= 3.212499D+00

 Vector   38  Occ=0.000000D+00  E= 3.223227D+00

 Vector   39  Occ=0.000000D+00  E= 3.223229D+00

 Vector   40  Occ=0.000000D+00  E= 3.390594D+00

 Vector   41  Occ=0.000000D+00  E= 3.446947D+00

 Vector   42  Occ=0.000000D+00  E= 3.446949D+00

 Vector   43  Occ=0.000000D+00  E= 3.470839D+00

 Vector   44  Occ=0.000000D+00  E= 3.470841D+00

 Vector   45  Occ=0.000000D+00  E= 3.645994D+00

 Vector   46  Occ=0.000000D+00  E= 3.645997D+00

 Vector   47  Occ=0.000000D+00  E= 3.669762D+00

 Vector   48  Occ=0.000000D+00  E= 3.804232D+00

 Vector   49  Occ=0.000000D+00  E= 3.902641D+00

 Vector   50  Occ=0.000000D+00  E= 3.902643D+00

 Vector   51  Occ=0.000000D+00  E= 4.066150D+00

 Vector   52  Occ=0.000000D+00  E= 4.066152D+00

 Vector   53  Occ=0.000000D+00  E= 4.201862D+00

 Vector   54  Occ=0.000000D+00  E= 4.201864D+00

 Vector   55  Occ=0.000000D+00  E= 4.279222D+00

 Vector   56  Occ=0.000000D+00  E= 4.316287D+00

 Vector   57  Occ=0.000000D+00  E= 4.657044D+00

 Vector   58  Occ=0.000000D+00  E= 4.838250D+00

 Vector   59  Occ=0.000000D+00  E= 4.838251D+00

 Vector   60  Occ=0.000000D+00  E= 4.939175D+00

 Vector   61  Occ=0.000000D+00  E= 5.340585D+00

 Vector   62  Occ=0.000000D+00  E= 5.340590D+00

 Vector   63  Occ=0.000000D+00  E= 5.497626D+00

 Vector   64  Occ=0.000000D+00  E= 5.763124D+00

 Vector   65  Occ=0.000000D+00  E= 5.763128D+00

 Vector   66  Occ=0.000000D+00  E= 5.858248D+00

 Vector   67  Occ=0.000000D+00  E= 5.934813D+00

 Vector   68  Occ=0.000000D+00  E= 5.934817D+00

 Vector   69  Occ=0.000000D+00  E= 5.944267D+00

 Vector   70  Occ=0.000000D+00  E= 6.795213D+00

 Vector   71  Occ=0.000000D+00  E= 6.795218D+00

 Vector   72  Occ=0.000000D+00  E= 1.325732D+01

     Multipole analysis of the density
     ---------------------------------

     L   x y z        total         alpha         beta         nuclear
     -   - - -        -----         -----         ----         -------
     0   0 0 0     -0.000000     -5.000000     -5.000000     10.000000

     1   1 0 0      0.206148      0.103074      0.103074      0.000000
     1   0 1 0     -0.046294     -0.023147     -0.023147     -0.000000
     1   0 0 1      0.581230      0.290615      0.290615     -0.000000

     2   2 0 0     -4.865675     -4.592598     -4.592598      4.319521
     2   1 1 0      0.051529     -0.019554     -0.019554      0.090638
     2   1 0 1     -0.646972      0.245533      0.245533     -1.138038
     2   0 2 0     -4.647769     -4.675298     -4.675298      4.702828
     2   0 1 1      0.145294     -0.055143     -0.055143      0.255580

  Root   1 singlet a              0.246272639 a.u.                6.7014 eV
     Dipole Oscillator Strength                    0.0511502795
  Root   2 singlet a              0.323081914 a.u.                8.7915 eV
     Dipole Oscillator Strength                    0.0197982431
  Root   3 singlet a              0.323082190 a.u.                8.7915 eV
     Dipole Oscillator Strength                    0.0197980718
  Root   4 singlet a              0.443091024 a.u.               12.0571 eV
     Dipole Oscillator Strength                    0.1726914359
 Total times  cpu:        7.2s     wall:        8.8s
