============================== echo of input deck ==============================
echo
start

memory stack 500 heap 1000 global 1000 mb

geometry
N    -0.04519266     0.01014880    -0.12741740
H     0.96734052     0.00616859    -0.07745343
H    -0.35907393     0.77863452     0.45451674
H    -0.35907392    -0.84076191     0.32553209
symmetry c1
end

basis spherical
 * library "cc-pvtz"
end

dft
 iterations 500
 xc b3lyp
end

tddft
 nroots 4
 notriplet
end

task tddft energy
================================================================================

 Output coordinates in angstroms (scale by  1.889725989 to convert to a.u.)

  No.       Tag          Charge          X              Y              Z
 ---- ---------------- ---------- -------------- -------------- --------------
    1 N                    7.0000    -0.03847707     0.00864052    -0.10848476
    2 H                    1.0000     0.97405612     0.00466031    -0.05852079
    3 H                    1.0000    -0.35235834     0.77712624     0.47344938
    4 H                    1.0000    -0.35235832    -0.84227019     0.34446473

         Total DFT energy =      -56.584725833770

                       DFT Final Molecular Orbital Analysis
                       ------------------------------------

 Vector    1  Occ=2.000000D+00  E=-1.428936D+01

 Vector    2  Occ=2.000000D+00  E=-8.503590D-01

 Vector    3  Occ=2.000000D+00  E=-4.591114D-01

 Vector    4  Occ=2.000000D+00  E=-4.591104D-01

 Vector    5  Occ=2.000000D+00  E=-2.657850D-01

 Vector    6  Occ=0.000000D+00  E= 2.975101D-02

 Vector    7  Occ=0.000000D+00  E= 1.102683D-01

 Vector    8  Occ=0.000000D+00  E= 1.102686D-01

 Vector    9  Occ=0.000000D+00  E= 3.206033D-01

 Vector   10  Occ=0.000000D+00  E= 3.206040D-01

 Vector   11  Occ=0.000000D+00  E= 4.243632D-01

 Vector   12  Occ=0.000000D+00  E= 4.538663D-01

 Vector   13  Occ=0.000000D+00  E= 5.296054D-01

 Vector   14  Occ=0.000000D+00  E= 5.296059D-01

 Vector   15  Occ=0.000000D+00  E= 5.708790D-01

 Vector   16  Occ=0.000000D+00  E= 5.708804D-01

 Vector   17  Occ=0.000000D+00  E= 6.128487D-01

 Vector   18  Occ=0.000000D+00  E= 9.288609D-01

 Vector   19  Occ=0.000000D+00  E= 9.478510D-01

 Vector   20  Occ=0.000000D+00  E= 1.020228D+00

 Vector   21  Occ=0.000000D+00  E= 1.020230D+00

 Vector   22  Occ=0.000000D+00  E= 1.218650D+00

 Vector   23  Occ=0.000000D+00  E= 1.218651D+00

 Vector   24  Occ=0.000000D+00  E= 1.347390D+00

 Vector   25  Occ=0.000000D+00  E= 1.517377D+00

 Vector   26  Occ=0.000000D+00  E= 1.517378D+00

 Vector   27  Occ=0.000000D+00  E= 1.547681D+00

 Vector   28  Occ=0.000000D+00  E= 1.547682D+00

 Vector   29  Occ=0.000000D+00  E= 1.629640D+00

 Vector   30  Occ=0.000000D+00  E= 2.271654D+00

 Vector   31  Occ=0.000000D+00  E= 2.271654D+00

 Vector   32  Occ=0.000000D+00  E= 2.340654D+00

 Vector   33  Occ=0.000000D+00  E= 3.004808D+00

 Vector   34  Occ=0.000000D+00  E= 3.130557D+00

 Vector   35  Occ=0.000000D+00  E= 3.147728D+00

 Vector   36  Occ=0.000000D+00  E= 3.147732D+00

 Vector   37  Occ=0.000000D+00  E= 3.212743D+00

 Vector   38  Occ=0.000000D+00  E= 3.225844D+00

 Vector   39  Occ=0.000000D+00  E= 3.225846D+00

 Vector   40  Occ=0.000000D+00  E= 3.392659D+00

 Vector   41  Occ=0.000000D+00  E= 3.445623D+00

 Vector   42  Occ=0.000000D+00  E= 3.445625D+00

 Vector   43  Occ=0.000000D+00  E= 3.467930D+00

 Vector   44  Occ=0.000000D+00  E= 3.467931D+00

 Vector   45  Occ=0.000000D+00  E= 3.645214D+00

 Vector   46  Occ=0.000000D+00  E= 3.645216D+00

 Vector   47  Occ=0.000000D+00  E= 3.666455D+00

 Vector   48  Occ=0.000000D+00  E= 3.804490D+00

 Vector   49  Occ=0.000000D+00  E= 3.899767D+00

 Vector   50  Occ=0.000000D+00  E= 3.899769D+00

 Vector   51  Occ=0.000000D+00  E= 4.065829D+00

 Vector   52  Occ=0.000000D+00  E= 4.065832D+00

 Vector   53  Occ=0.000000D+00  E= 4.200207D+00

 Vector   54  Occ=0.000000D+00  E= 4.200209D+00

 Vector   55  Occ=0.000000D+00  E= 4.283381D+00

 Vector   56  Occ=0.000000D+00  E= 4.321951D+00

 Vector   57  Occ=0.000000D+00  E= 4.662897D+00

 Vector   58  Occ=0.000000D+00  E= 4.839867D+00

 Vector   59  Occ=0.000000D+00  E= 4.839868D+00

 Vector   60  Occ=0.000000D+00  E= 4.932289D+00

 Vector   61  Occ=0.000000D+00  E= 5.337929D+00

 Vector   62  Occ=0.000000D+00  E= 5.337934D+00

 Vector   63  Occ=0.000000D+00  E= 5.493130D+00

 Vector   64  Occ=0.000000D+00  E= 5.767373D+00

 Vector   65  Occ=0.000000D+00  E= 5.767377D+00

 Vector   66  Occ=0.000000D+00  E= 5.857042D+00

 Vector   67  Occ=0.000000D+00  E= 5.933907D+00

 Vector   68  Occ=0.000000D+00  E= 5.935858D+00

 Vector   69  Occ=0.000000D+00  E= 5.935861D+00

 Vector   70  Occ=0.000000D+00  E= 6.797369D+00

 Vector   71  Occ=0.000000D+00  E= 6.797374D+00

 Vector   72  Occ=0.000000D+00  E= 1.324383D+01

     Multipole analysis of the density
     ---------------------------------

     L   x y z        total         alpha         beta         nuclear
     -   - - -        -----         -----         ----         -------
     0   0 0 0     -0.000000     -5.000000     -5.000000     10.000000

     1   1 0 0      0.207563      0.103781      0.103781      0.000000
     1   0 1 0     -0.046612     -0.023306     -0.023306      0.000000
     1   0 0 1      0.585219      0.292609      0.292609      0.000000

     2   2 0 0     -4.871186     -4.591554     -4.591554      4.311923
     2   1 1 0      0.051198     -0.019336     -0.019336      0.089870
     2   1 0 1     -0.642809      0.242792      0.242792     -1.128393
     2   0 2 0     -4.654682     -4.673331     -4.673331      4.691981
     2   0 1 1      0.144359     -0.054528     -0.054528      0.253414

  Root   1 singlet a              0.246731850 a.u.                6.7139 eV
     Dipole Oscillator Strength                    0.0515767601
  Root   2 singlet a              0.323666775 a.u.                8.8074 eV
     Dipole Oscillator Strength                    0.0200902218
  Root   3 singlet a              0.323667051 a.u.                8.8074 eV
     Dipole Oscillator Strength                    0.0200900681
  Root   4 singlet a              0.442597070 a.u.               12.0437 eV
     Dipole Oscillator Strength                    0.1724384768
 Total times  cpu:        3.9s     wall:        5.8s
