============================== echo of input deck ==============================
echo
start

memory stack 500 heap 1000 global 1000 mb

geometry
N    -0.04519266     0.01014880    -0.12741740
H     0.96734052     0.00616859    -0.07745343
H    -0.35907393     0.77863452     0.45451674
H    -0.35907392    -0.84076191     0.32553209
symmetry c1
end

basis spherical
 * library "cc-pvtz"
end

dft
 iterations 500
 xc b3lyp
end
task dft frequencies
================================================================================

 Output coordinates in angstroms (scale by  1.889725989 to convert to a.u.)

  No.       Tag          Charge          X              Y              Z
 ---- ---------------- ---------- -------------- -------------- --------------
    1 N                    7.0000    -0.03847707     0.00864052    -0.10848476
    2 H                    1.0000     0.97405612     0.00466031    -0.05852079
    3 H                    1.0000    -0.35235834     0.77712624     0.47344938
    4 H                    1.0000    -0.35235832    -0.84227019     0.34446473

         Total DFT energy =      -56.584725883805

                       DFT Final Molecular Orbital Analysis
                       ------------------------------------

 Vector    1  Occ=2.000000D+00  E=-1.428936D+01

 Vector    2  Occ=2.000000D+00  E=-8.503579D-01

 Vector    3  Occ=2.000000D+00  E=-4.591107D-01

 Vector    4  Occ=2.000000D+00  E=-4.591097D-01

 Vector    5  Occ=2.000000D+00  E=-2.657847D-01

 Vector    6  Occ=0.000000D+00  E= 2.975143D-02

 Vector    7  Occ=0.000000D+00  E= 1.102686D-01

 Vector    8  Occ=0.000000D+00  E= 1.102688D-01

 Vector    9  Occ=0.000000D+00  E= 3.206034D-01

 Vector   10  Occ=0.000000D+00  E= 3.206042D-01

 Vector   11  Occ=0.000000D+00  E= 4.243639D-01

 Vector   12  Occ=0.000000D+00  E= 4.538665D-01

 Vector   13  Occ=0.000000D+00  E= 5.296057D-01

 Vector   14  Occ=0.000000D+00  E= 5.296062D-01

 Vector   15  Occ=0.000000D+00  E= 5.708793D-01

 Vector   16  Occ=0.000000D+00  E= 5.708804D-01

 Vector   17  Occ=0.000000D+00  E= 6.128493D-01

 Vector   18  Occ=0.000000D+00  E= 9.288609D-01

 Vector   19  Occ=0.000000D+00  E= 9.478514D-01

 Vector   20  Occ=0.000000D+00  E= 1.020228D+00

 Vector   21  Occ=0.000000D+00  E= 1.020230D+00

 Vector   22  Occ=0.000000D+00  E= 1.218650D+00

 Vector   23  Occ=0.000000D+00  E= 1.218652D+00

 Vector   24  Occ=0.000000D+00  E= 1.347391D+00

 Vector   25  Occ=0.000000D+00  E= 1.517377D+00

 Vector   26  Occ=0.000000D+00  E= 1.517378D+00

 Vector   27  Occ=0.000000D+00  E= 1.547682D+00

 Vector   28  Occ=0.000000D+00  E= 1.547682D+00

 Vector   29  Occ=0.000000D+00  E= 1.629641D+00

 Vector   30  Occ=0.000000D+00  E= 2.271654D+00

 Vector   31  Occ=0.000000D+00  E= 2.271655D+00

 Vector   32  Occ=0.000000D+00  E= 2.340654D+00

 Vector   33  Occ=0.000000D+00  E= 3.004808D+00

 Vector   34  Occ=0.000000D+00  E= 3.130556D+00

 Vector   35  Occ=0.000000D+00  E= 3.147728D+00

 Vector   36  Occ=0.000000D+00  E= 3.147733D+00

 Vector   37  Occ=0.000000D+00  E= 3.212743D+00

 Vector   38  Occ=0.000000D+00  E= 3.225844D+00

 Vector   39  Occ=0.000000D+00  E= 3.225846D+00

 Vector   40  Occ=0.000000D+00  E= 3.392659D+00

 Vector   41  Occ=0.000000D+00  E= 3.445623D+00

 Vector   42  Occ=0.000000D+00  E= 3.445625D+00

 Vector   43  Occ=0.000000D+00  E= 3.467930D+00

 Vector   44  Occ=0.000000D+00  E= 3.467931D+00

 Vector   45  Occ=0.000000D+00  E= 3.645214D+00

 Vector   46  Occ=0.000000D+00  E= 3.645216D+00

 Vector   47  Occ=0.000000D+00  E= 3.666456D+00

 Vector   48  Occ=0.000000D+00  E= 3.804491D+00

 Vector   49  Occ=0.000000D+00  E= 3.899768D+00

 Vector   50  Occ=0.000000D+00  E= 3.899769D+00

 Vector   51  Occ=0.000000D+00  E= 4.065830D+00

 Vector   52  Occ=0.000000D+00  E= 4.065832D+00

 Vector   53  Occ=0.000000D+00  E= 4.200207D+00

 Vector   54  Occ=0.000000D+00  E= 4.200209D+00

 Vector   55  Occ=0.000000D+00  E= 4.283381D+00

 Vector   56  Occ=0.000000D+00  E= 4.321952D+00

 Vector   57  Occ=0.000000D+00  E= 4.662898D+00

 Vector   58  Occ=0.000000D+00  E= 4.839868D+00

 Vector   59  Occ=0.000000D+00  E= 4.839869D+00

 Vector   60  Occ=0.000000D+00  E= 4.932290D+00

 Vector   61  Occ=0.000000D+00  E= 5.337930D+00

 Vector   62  Occ=0.000000D+00  E= 5.337934D+00

 Vector   63  Occ=0.000000D+00  E= 5.493131D+00

 Vector   64  Occ=0.000000D+00  E= 5.767374D+00

 Vector   65  Occ=0.000000D+00  E= 5.767378D+00

 Vector   66  Occ=0.000000D+00  E= 5.857043D+00

 Vector   67  Occ=0.000000D+00  E= 5.933908D+00

 Vector   68  Occ=0.000000D+00  E= 5.935858D+00

 Vector   69  Occ=0.000000D+00  E= 5.935862D+00

 Vector   70  Occ=0.000000D+00  E= 6.797371D+00

 Vector   71  Occ=0.000000D+00  E= 6.797375D+00

 Vector   72  Occ=0.000000D+00  E= 1.324382D+01

     Multipole analysis of the density
     ---------------------------------

     L   x y z        total         alpha         beta         nuclear
     -   - - -        -----         -----         ----         -------
     0   0 0 0     -0.000000     -5.000000     -5.000000     10.000000

     1   1 0 0      0.207564      0.103782      0.103782      0.000000
     1   0 1 0     -0.046612     -0.023306     -0.023306      0.000000
     1   0 0 1      0.585221      0.292611      0.292611      0.000000

     2   2 0 0     -4.871193     -4.591558     -4.591558      4.311923
     2   1 1 0      0.051198     -0.019336     -0.019336      0.089870
     2   1 0 1     -0.642806      0.242793      0.242793     -1.128393
     2   0 2 0     -4.654690     -4.673335     -4.673335      4.691981
     2   0 1 1      0.144358     -0.054528     -0.054528      0.253414

 Zero-Point correction to Energy  =   21.484 kcal/mol  (  0.034237 au)
 Thermal correction to Energy     =   23.282 kcal/mol  (  0.037102 au)
 Thermal correction to Enthalpy   =   23.874 kcal/mol  (  0.038046 au)
 Total Entropy                    =   48.124 cal/mol-K
   - Translational                =   34.425 cal/mol-K (mol. weight =  17.0265)
   - Rotational                   =   13.615 cal/mol-K (symmetry #  =        1)
   - Vibrational                  =    0.083 cal/mol-K
   - Translational                  =    2.979 cal/mol-K
   - Rotational                     =    2.979 cal/mol-K
   - Vibrational                    =    0.392 cal/mol-K
 P.Frequency       -0.00       -0.00       -0.00       -0.00        0.00        0.00
 P.Frequency     1064.40     1676.51     1676.51     3461.64     3578.26     3578.28

 Normal Eigenvalue ||           Projected Infra Red Intensities
  Mode   [cm**-1]  || [atomic units] [(debye/angs)**2] [(KM/mol)] [arbitrary]
 ------ ---------- || -------------- ----------------- ---------- -----------
    1       -0.000 ||    0.034625           0.799        33.755      13.090
    2       -0.000 ||    0.011368           0.262        11.082       4.298
    3       -0.000 ||    0.045733           1.055        44.583      17.289
    4       -0.000 ||    0.023528           0.543        22.936       8.895
    5        0.000 ||    0.012252           0.283        11.944       4.632
    6        0.000 ||    0.000384           0.009         0.374       0.145
    7     1064.395 ||    0.151252           3.489       147.448      57.181
    8     1676.511 ||    0.017343           0.400        16.906       6.556
    9     1676.515 ||    0.017343           0.400        16.906       6.556
   10     3461.639 ||    0.002432           0.056         2.371       0.919
   11     3578.257 ||    0.000579           0.013         0.565       0.219
   12     3578.276 ||    0.000579           0.013         0.565       0.219
 ----------------------------------------------------------------------------

 Total times  cpu:        3.5s     wall:       10.8s
