============================== echo of input deck ==============================
echo
start

memory stack 500 heap 1000 global 1000 mb

geometry
N         -0.28268        1.08188        0.00000
H          0.73732        1.08188        0.00000
H         -0.62268        1.87390        0.54544
H         -0.62268        0.21351        0.41319
symmetry c1
end

basis spherical
 * library "cc-pvtz"
end

dft
 iterations 500
 xc b3lyp
end
task dft optimize
================================================================================

         Total DFT energy =      -56.584044987417
@ Step       Energy      Delta E   Gmax     Grms     Xrms     Xmax   Walltime
@ ---- ---------------- -------- -------- -------- -------- -------- --------
@    0     -56.58404499  0.0D+00  0.00836  0.00421  0.00000  0.00000      6.9
         Total DFT energy =      -56.584336849409
         Total DFT energy =      -56.584346188945
@    1     -56.58434619 -3.0D-04  0.00105  0.00065  0.01103  0.02079      8.5
         Total DFT energy =      -56.584406094969
         Total DFT energy =      -56.584559508035
@    2     -56.58455951 -2.1D-04  0.00053  0.00037  0.00816  0.02073     10.4
         Total DFT energy =      -56.584724224004
         Total DFT energy =      -56.584724920379
@    3     -56.58472492 -1.7D-04  0.00011  0.00006  0.01743  0.04197     12.2
         Total DFT energy =      -56.584725463520

 Vector   65  Occ=0.000000D+00  E= 5.766821D+00

 Vector   66  Occ=0.000000D+00  E= 5.857142D+00

 Vector   67  Occ=0.000000D+00  E= 5.935129D+00

 Vector   68  Occ=0.000000D+00  E= 5.935701D+00

 Vector   69  Occ=0.000000D+00  E= 5.935708D+00

 Vector   70  Occ=0.000000D+00  E= 6.797072D+00

 Vector   71  Occ=0.000000D+00  E= 6.797082D+00

 Vector   72  Occ=0.000000D+00  E= 1.324525D+01

         Total DFT energy =    -56.584725463520
@    4     -56.58472546 -5.4D-07  0.00001  0.00001  0.00150  0.00337     13.2
         Total DFT energy =      -56.584725831249

                       DFT Final Molecular Orbital Analysis
                       ------------------------------------

 Vector    1  Occ=2.000000D+00  E=-1.428944D+01

 Vector    2  Occ=2.000000D+00  E=-8.503847D-01

 Vector    3  Occ=2.000000D+00  E=-4.591330D-01

 Vector    4  Occ=2.000000D+00  E=-4.591321D-01

 Vector    5  Occ=2.000000D+00  E=-2.658123D-01

 Vector    6  Occ=0.000000D+00  E= 2.974574D-02

 Vector    7  Occ=0.000000D+00  E= 1.102618D-01

 Vector    8  Occ=0.000000D+00  E= 1.102621D-01

 Vector    9  Occ=0.000000D+00  E= 3.205966D-01

 Vector   10  Occ=0.000000D+00  E= 3.205974D-01

 Vector   11  Occ=0.000000D+00  E= 4.243496D-01

 Vector   12  Occ=0.000000D+00  E= 4.538581D-01

 Vector   13  Occ=0.000000D+00  E= 5.295938D-01

 Vector   14  Occ=0.000000D+00  E= 5.295944D-01

 Vector   15  Occ=0.000000D+00  E= 5.708701D-01

 Vector   16  Occ=0.000000D+00  E= 5.708714D-01

 Vector   17  Occ=0.000000D+00  E= 6.128381D-01

 Vector   18  Occ=0.000000D+00  E= 9.288563D-01

 Vector   19  Occ=0.000000D+00  E= 9.478421D-01

 Vector   20  Occ=0.000000D+00  E= 1.020223D+00

 Vector   21  Occ=0.000000D+00  E= 1.020224D+00

 Vector   22  Occ=0.000000D+00  E= 1.218640D+00

 Vector   23  Occ=0.000000D+00  E= 1.218641D+00

 Vector   24  Occ=0.000000D+00  E= 1.347377D+00

 Vector   25  Occ=0.000000D+00  E= 1.517362D+00

 Vector   26  Occ=0.000000D+00  E= 1.517363D+00

 Vector   27  Occ=0.000000D+00  E= 1.547667D+00

 Vector   28  Occ=0.000000D+00  E= 1.547668D+00

 Vector   29  Occ=0.000000D+00  E= 1.629625D+00

 Vector   30  Occ=0.000000D+00  E= 2.271641D+00

 Vector   31  Occ=0.000000D+00  E= 2.271642D+00

 Vector   32  Occ=0.000000D+00  E= 2.340642D+00

 Vector   33  Occ=0.000000D+00  E= 3.004789D+00

 Vector   34  Occ=0.000000D+00  E= 3.130526D+00

 Vector   35  Occ=0.000000D+00  E= 3.147714D+00

 Vector   36  Occ=0.000000D+00  E= 3.147719D+00

 Vector   37  Occ=0.000000D+00  E= 3.212729D+00

 Vector   38  Occ=0.000000D+00  E= 3.225834D+00

 Vector   39  Occ=0.000000D+00  E= 3.225836D+00

 Vector   40  Occ=0.000000D+00  E= 3.392650D+00

 Vector   41  Occ=0.000000D+00  E= 3.445599D+00

 Vector   42  Occ=0.000000D+00  E= 3.445601D+00

 Vector   43  Occ=0.000000D+00  E= 3.467915D+00

 Vector   44  Occ=0.000000D+00  E= 3.467917D+00

 Vector   45  Occ=0.000000D+00  E= 3.645207D+00

 Vector   46  Occ=0.000000D+00  E= 3.645210D+00

 Vector   47  Occ=0.000000D+00  E= 3.666447D+00

 Vector   48  Occ=0.000000D+00  E= 3.804480D+00

 Vector   49  Occ=0.000000D+00  E= 3.899753D+00

 Vector   50  Occ=0.000000D+00  E= 3.899755D+00

 Vector   51  Occ=0.000000D+00  E= 4.065817D+00

 Vector   52  Occ=0.000000D+00  E= 4.065819D+00

 Vector   53  Occ=0.000000D+00  E= 4.200190D+00

 Vector   54  Occ=0.000000D+00  E= 4.200193D+00

 Vector   55  Occ=0.000000D+00  E= 4.283375D+00

 Vector   56  Occ=0.000000D+00  E= 4.321924D+00

 Vector   57  Occ=0.000000D+00  E= 4.662881D+00

 Vector   58  Occ=0.000000D+00  E= 4.839836D+00

 Vector   59  Occ=0.000000D+00  E= 4.839837D+00

 Vector   60  Occ=0.000000D+00  E= 4.932264D+00

 Vector   61  Occ=0.000000D+00  E= 5.337908D+00

 Vector   62  Occ=0.000000D+00  E= 5.337912D+00

 Vector   63  Occ=0.000000D+00  E= 5.493104D+00

 Vector   64  Occ=0.000000D+00  E= 5.767352D+00

 Vector   65  Occ=0.000000D+00  E= 5.767356D+00

 Vector   66  Occ=0.000000D+00  E= 5.857021D+00

 Vector   67  Occ=0.000000D+00  E= 5.933884D+00

 Vector   68  Occ=0.000000D+00  E= 5.935834D+00

 Vector   69  Occ=0.000000D+00  E= 5.935838D+00

 Vector   70  Occ=0.000000D+00  E= 6.797344D+00

 Vector   71  Occ=0.000000D+00  E= 6.797348D+00

 Vector   72  Occ=0.000000D+00  E= 1.324379D+01

     Multipole analysis of the density
     ---------------------------------

     L   x y z        total         alpha         beta         nuclear
     -   - - -        -----         -----         ----         -------
     0   0 0 0     -0.000000     -5.000000     -5.000000     10.000000

     1   1 0 0      0.207589      0.167248      0.167248     -0.126906
     1   0 1 0     -0.046618     -0.037560     -0.037560      0.028502
     1   0 0 1      0.585293      0.471534      0.471534     -0.357775

     2   2 0 0     -4.876154     -4.594844     -4.594844      4.313533
     2   1 1 0      0.052383     -0.018563     -0.018563      0.089508
     2   1 0 1     -0.657684      0.233084      0.233084     -1.123852
     2   0 2 0     -4.654640     -4.673351     -4.673351      4.692062
     2   0 1 1      0.147700     -0.052347     -0.052347      0.252395

         Total DFT energy =    -56.584725831249
@    5     -56.58472583 -3.7D-07  0.00001  0.00000  0.00024  0.00055     14.1
@    5     -56.58472583 -3.7D-07  0.00001  0.00000  0.00024  0.00055     14.1

 Output coordinates in angstroms (scale by  1.889725989 to convert to a.u.)

  No.       Tag          Charge          X              Y              Z
 ---- ---------------- ---------- -------------- -------------- --------------
    1 N                    7.0000    -0.04519266     0.01014880    -0.12741740
    2 H                    1.0000     0.96734052     0.00616859    -0.07745343
    3 H                    1.0000    -0.35907393     0.77863452     0.45451674
    4 H                    1.0000    -0.35907392    -0.84076191     0.32553209

 Total times  cpu:        5.9s     wall:       14.2s
