============================== echo of input deck ==============================
echo
start

title "None"

geometry
C    -0.08761979    1.39064429    0.00000005
C    -1.26615524    0.69126916   -0.00000002
C    -1.16612587   -0.70481866   -0.00000002
C     0.08303613   -1.31789631    0.00000004
C     1.24536945   -0.55287906   -0.00000001
C     1.16937730    0.84472352    0.00000005
H    -2.23157765    1.17928534   -0.00000010
H    -2.06725536   -1.30466008   -0.00000009
H     0.15104405   -2.39728411   -0.00000000
H     2.21466190   -1.03487072   -0.00000013
H     2.06591191    1.45005489   -0.00000010
symmetry c1
end

basis spherical
 * library "aug-cc-pvtz"
end

dft
 direct
 mult 2
 iterations 500
 xc b3lyp
end

tddft
 nroots 40
 notriplet
 algorithm 1
end
task tddft energy
================================================================================

 Output coordinates in angstroms (scale by  1.889725989 to convert to a.u.)

  No.       Tag          Charge          X              Y              Z
 ---- ---------------- ---------- -------------- -------------- --------------
    1 C                    6.0000    -0.08762166     1.39067397     0.00000005
    2 C                    6.0000    -1.26615711     0.69129884    -0.00000002
    3 C                    6.0000    -1.16612774    -0.70478898    -0.00000002
    4 C                    6.0000     0.08303426    -1.31786663     0.00000004
    5 C                    6.0000     1.24536758    -0.55284938    -0.00000001
    6 C                    6.0000     1.16937543     0.84475320     0.00000005
    7 H                    1.0000    -2.23157952     1.17931502    -0.00000010
    8 H                    1.0000    -2.06725723    -1.30463040    -0.00000009
    9 H                    1.0000     0.15104218    -2.39725443    -0.00000000
   10 H                    1.0000     2.21466003    -1.03484104    -0.00000013
   11 H                    1.0000     2.06591004     1.45008457    -0.00000010

         Total DFT energy =     -231.646322900401

                    DFT Final Alpha Molecular Orbital Analysis
                    ------------------------------------------

 Vector    1  Occ=1.000000D+00  E=-1.020538D+01

 Vector  305  Occ=0.000000D+00  E= 3.874153D+00

 Vector  306  Occ=0.000000D+00  E= 3.901322D+00

 Vector  307  Occ=0.000000D+00  E= 3.910239D+00

 Vector  308  Occ=0.000000D+00  E= 3.922259D+00

 Vector  309  Occ=0.000000D+00  E= 3.926306D+00

 Vector  310  Occ=0.000000D+00  E= 3.952790D+00

 Vector  311  Occ=0.000000D+00  E= 3.958647D+00

 Vector  312  Occ=0.000000D+00  E= 3.962866D+00

 Vector  313  Occ=0.000000D+00  E= 3.989265D+00

 Vector  314  Occ=0.000000D+00  E= 3.994431D+00

 Vector  315  Occ=0.000000D+00  E= 4.010234D+00

 Vector  316  Occ=0.000000D+00  E= 4.031756D+00

 Vector  317  Occ=0.000000D+00  E= 4.061524D+00

 Vector  318  Occ=0.000000D+00  E= 4.069254D+00

 Vector  319  Occ=0.000000D+00  E= 4.104078D+00

 Vector  320  Occ=0.000000D+00  E= 4.104154D+00

 Vector  321  Occ=0.000000D+00  E= 4.106685D+00

 Vector  322  Occ=0.000000D+00  E= 4.152976D+00

 Vector  323  Occ=0.000000D+00  E= 4.206654D+00

 Vector  324  Occ=0.000000D+00  E= 4.228998D+00

 Vector  325  Occ=0.000000D+00  E= 4.236570D+00

 Vector  326  Occ=0.000000D+00  E= 4.332440D+00

 Vector  327  Occ=0.000000D+00  E= 4.345701D+00

 Vector  328  Occ=0.000000D+00  E= 4.390402D+00

 Vector  329  Occ=0.000000D+00  E= 4.420504D+00

 Vector  330  Occ=0.000000D+00  E= 4.443726D+00

 Vector  331  Occ=0.000000D+00  E= 4.462487D+00

 Vector  332  Occ=0.000000D+00  E= 4.486092D+00

 Vector  333  Occ=0.000000D+00  E= 4.490794D+00

 Vector  334  Occ=0.000000D+00  E= 4.505808D+00

 Vector  335  Occ=0.000000D+00  E= 4.521065D+00

 Vector  336  Occ=0.000000D+00  E= 4.575513D+00

 Vector  337  Occ=0.000000D+00  E= 4.626689D+00

 Vector  338  Occ=0.000000D+00  E= 4.652162D+00

 Vector  339  Occ=0.000000D+00  E= 4.657953D+00

 Vector  340  Occ=0.000000D+00  E= 4.705680D+00

 Vector  341  Occ=0.000000D+00  E= 4.719983D+00

 Vector  342  Occ=0.000000D+00  E= 4.750251D+00

 Vector  343  Occ=0.000000D+00  E= 4.753238D+00

 Vector  344  Occ=0.000000D+00  E= 4.769050D+00

 Vector  345  Occ=0.000000D+00  E= 4.802935D+00

 Vector  346  Occ=0.000000D+00  E= 4.805354D+00

 Vector  347  Occ=0.000000D+00  E= 4.808855D+00

 Vector  348  Occ=0.000000D+00  E= 4.823412D+00

 Vector  349  Occ=0.000000D+00  E= 4.855773D+00

 Vector  350  Occ=0.000000D+00  E= 4.902175D+00

 Vector  351  Occ=0.000000D+00  E= 4.934653D+00

 Vector  352  Occ=0.000000D+00  E= 4.950049D+00

 Vector  353  Occ=0.000000D+00  E= 4.959381D+00

 Vector  354  Occ=0.000000D+00  E= 4.982653D+00

 Vector  355  Occ=0.000000D+00  E= 5.086334D+00

 Vector  356  Occ=0.000000D+00  E= 5.089039D+00

 Vector  357  Occ=0.000000D+00  E= 5.092155D+00

 Vector  358  Occ=0.000000D+00  E= 5.167449D+00

 Vector  359  Occ=0.000000D+00  E= 5.259405D+00

 Vector  360  Occ=0.000000D+00  E= 5.322115D+00

 Vector  361  Occ=0.000000D+00  E= 5.322992D+00

 Vector  362  Occ=0.000000D+00  E= 5.412401D+00

 Vector  363  Occ=0.000000D+00  E= 5.415627D+00

 Vector  364  Occ=0.000000D+00  E= 5.435910D+00

 Vector  365  Occ=0.000000D+00  E= 5.620320D+00

 Vector  366  Occ=0.000000D+00  E= 5.635815D+00

 Vector  367  Occ=0.000000D+00  E= 5.681693D+00

 Vector  368  Occ=0.000000D+00  E= 5.747056D+00

 Vector  369  Occ=0.000000D+00  E= 5.803375D+00

 Vector  370  Occ=0.000000D+00  E= 5.918790D+00

 Vector  371  Occ=0.000000D+00  E= 5.930920D+00

 Vector  372  Occ=0.000000D+00  E= 6.046822D+00

 Vector  373  Occ=0.000000D+00  E= 6.164664D+00

 Vector  374  Occ=0.000000D+00  E= 6.253451D+00

 Vector  375  Occ=0.000000D+00  E= 6.406908D+00

 Vector  376  Occ=0.000000D+00  E= 6.449389D+00

 Vector  377  Occ=0.000000D+00  E= 6.604074D+00

 Vector  378  Occ=0.000000D+00  E= 6.863986D+00

 Vector  379  Occ=0.000000D+00  E= 1.504455D+01

 Vector  380  Occ=0.000000D+00  E= 1.506515D+01

 Vector  381  Occ=0.000000D+00  E= 1.597685D+01

 Vector  382  Occ=0.000000D+00  E= 1.764924D+01

 Vector  383  Occ=0.000000D+00  E= 1.800886D+01

 Vector  384  Occ=0.000000D+00  E= 1.806334D+01

     Multipole analysis of the density
     ---------------------------------

     L   x y z        total         alpha         beta         nuclear
     -   - - -        -----         -----         ----         -------
     0   0 0 0     -0.000000    -21.000000    -20.000000     41.000000

     1   1 0 0      0.021639      0.107021     -0.085382     -0.000000
     1   0 1 0     -0.341616     -1.697655      1.356039     -0.000000
     1   0 0 1     -0.000001     -0.000001     -0.000000      0.000000

     2   2 0 0    -22.679221   -108.435774   -106.455171    192.211724
     2   1 1 0      0.189233     -0.473983     -1.104120      1.767336
     2   1 0 1      0.000000     -0.000001     -0.000001      0.000002
     2   0 2 0    -25.670711   -100.942571    -89.000761    164.272621
     2   0 1 1     -0.000005     -0.000004     -0.000003      0.000001

  Root   1         a              0.106086875 a.u.                2.8868 eV
     Dipole Oscillator Strength                    0.0012137325
  Root   2         a              0.125543443 a.u.                3.4162 eV
     Dipole Oscillator Strength                    0.0000000000
  Root   3         a              0.143201235 a.u.                3.8967 eV
     Dipole Oscillator Strength                    0.0000121497
  Root   4         a              0.170879375 a.u.                4.6499 eV
     Dipole Oscillator Strength                    0.0000000000
  Root   5         a              0.171583362 a.u.                4.6690 eV
     Dipole Oscillator Strength                    0.0002395964
  Root   6         a              0.174311414 a.u.                4.7433 eV
     Dipole Oscillator Strength                    0.0037731011
  Root   7         a              0.177238769 a.u.                4.8229 eV
     Dipole Oscillator Strength                    0.0000132548
  Root   8         a              0.191773507 a.u.                5.2184 eV
     Dipole Oscillator Strength                    0.0007297852
  Root   9         a              0.201825813 a.u.                5.4920 eV
     Dipole Oscillator Strength                    0.0061104885
  Root  10         a              0.211455963 a.u.                5.7540 eV
     Dipole Oscillator Strength                    0.0074783062
  Root  11         a              0.215069705 a.u.                5.8523 eV
     Dipole Oscillator Strength                    0.0014698547
  Root  12         a              0.223199706 a.u.                6.0736 eV
     Dipole Oscillator Strength                    0.0002774047
  Root  13         a              0.224566187 a.u.                6.1108 eV
     Dipole Oscillator Strength                    0.0046373416
  Root  14         a              0.228433124 a.u.                6.2160 eV
     Dipole Oscillator Strength                    0.0000000000
  Root  15         a              0.229009863 a.u.                6.2317 eV
     Dipole Oscillator Strength                    0.0091536854
  Root  16         a              0.229819588 a.u.                6.2537 eV
     Dipole Oscillator Strength                    0.0000000545
  Root  17         a              0.229830039 a.u.                6.2540 eV
     Dipole Oscillator Strength                    0.0010017282
  Root  18         a              0.232648510 a.u.                6.3307 eV
     Dipole Oscillator Strength                    0.0228318098
  Root  19         a              0.235039154 a.u.                6.3957 eV
     Dipole Oscillator Strength                    0.0001905327
  Root  20         a              0.241891599 a.u.                6.5822 eV
     Dipole Oscillator Strength                    0.0000000001
  Root  21         a              0.242507921 a.u.                6.5990 eV
     Dipole Oscillator Strength                    0.0936459389
  Root  22         a              0.245210321 a.u.                6.6725 eV
     Dipole Oscillator Strength                    0.0009661246
  Root  23         a              0.246304532 a.u.                6.7023 eV
     Dipole Oscillator Strength                    0.0352010880
  Root  24         a              0.247297227 a.u.                6.7293 eV
     Dipole Oscillator Strength                    0.0001968899
  Root  25         a              0.248476366 a.u.                6.7614 eV
     Dipole Oscillator Strength                    0.0000000001
  Root  26         a              0.251522853 a.u.                6.8443 eV
     Dipole Oscillator Strength                    0.0654486816
  Root  27         a              0.252150828 a.u.                6.8614 eV
     Dipole Oscillator Strength                    0.0101986342
  Root  28         a              0.252497579 a.u.                6.8708 eV
     Dipole Oscillator Strength                    0.0000000010
  Root  29         a              0.253841381 a.u.                6.9074 eV
     Dipole Oscillator Strength                    0.0000000002
  Root  30         a              0.254738132 a.u.                6.9318 eV
     Dipole Oscillator Strength                    0.3648276657
  Root  31         a              0.255798981 a.u.                6.9606 eV
     Dipole Oscillator Strength                    0.0721549719
  Root  32         a              0.261186180 a.u.                7.1072 eV
     Dipole Oscillator Strength                    0.0015990352
  Root  33         a              0.265578214 a.u.                7.2268 eV
     Dipole Oscillator Strength                    0.0000000000
  Root  34         a              0.267396109 a.u.                7.2762 eV
     Dipole Oscillator Strength                    0.2647223687
  Root  35         a              0.270672563 a.u.                7.3654 eV
     Dipole Oscillator Strength                    0.0000158292
  Root  36         a              0.271251446 a.u.                7.3811 eV
     Dipole Oscillator Strength                    0.0004633860
  Root  37         a              0.271671714 a.u.                7.3926 eV
     Dipole Oscillator Strength                    0.0000976375
  Root  38         a              0.272097040 a.u.                7.4041 eV
     Dipole Oscillator Strength                    0.0390011839
  Root  39         a              0.272469127 a.u.                7.4143 eV
     Dipole Oscillator Strength                    0.0000000001
  Root  40         a              0.272687674 a.u.                7.4202 eV
     Dipole Oscillator Strength                    0.0003326019
 Total times  cpu:     2977.2s     wall:     3066.4s
