============================== echo of input deck ==============================
echo
start

title "None"

geometry
C    -0.08734154    1.38622977    0.00000005
C    -1.26805899    0.69183854   -0.00000002
C    -1.16604019   -0.70372924   -0.00000002
C     0.08301747   -1.31759993    0.00000004
C     1.24514736   -0.55180870   -0.00000001
C     1.17119486    0.84552776    0.00000005
H    -2.23228971    1.18215921   -0.00000010
H    -2.06676107   -1.30420911   -0.00000009
H     0.15102458   -2.39697204   -0.00000000
H     2.21411449   -1.03448513   -0.00000013
H     2.06625799    1.45299541   -0.00000010
symmetry c1
end

basis spherical
 * library "aug-cc-pvtz"
end

dft
 direct
 mult 2
 iterations 500
 xc b3lyp
end

tddft
 nroots 40
 notriplet
 algorithm 1
end
task tddft energy
================================================================================

 Output coordinates in angstroms (scale by  1.889725989 to convert to a.u.)

  No.       Tag          Charge          X              Y              Z
 ---- ---------------- ---------- -------------- -------------- --------------
    1 C                    6.0000    -0.08733813     1.38617520     0.00000005
    2 C                    6.0000    -1.26805558     0.69178397    -0.00000002
    3 C                    6.0000    -1.16603678    -0.70378381    -0.00000002
    4 C                    6.0000     0.08302088    -1.31765450     0.00000004
    5 C                    6.0000     1.24515077    -0.55186327    -0.00000001
    6 C                    6.0000     1.17119827     0.84547319     0.00000005
    7 H                    1.0000    -2.23228630     1.18210464    -0.00000010
    8 H                    1.0000    -2.06675766    -1.30426368    -0.00000009
    9 H                    1.0000     0.15102799    -2.39702661    -0.00000000
   10 H                    1.0000     2.21411790    -1.03453970    -0.00000013
   11 H                    1.0000     2.06626140     1.45294084    -0.00000010

         Total DFT energy =     -231.646315052520

                    DFT Final Alpha Molecular Orbital Analysis
                    ------------------------------------------

 Vector    1  Occ=1.000000D+00  E=-1.020495D+01

 Vector  305  Occ=0.000000D+00  E= 3.874399D+00

 Vector  306  Occ=0.000000D+00  E= 3.899442D+00

 Vector  307  Occ=0.000000D+00  E= 3.910856D+00

 Vector  308  Occ=0.000000D+00  E= 3.922048D+00

 Vector  309  Occ=0.000000D+00  E= 3.926178D+00

 Vector  310  Occ=0.000000D+00  E= 3.952633D+00

 Vector  311  Occ=0.000000D+00  E= 3.957482D+00

 Vector  312  Occ=0.000000D+00  E= 3.962911D+00

 Vector  313  Occ=0.000000D+00  E= 3.989519D+00

 Vector  314  Occ=0.000000D+00  E= 3.994782D+00

 Vector  315  Occ=0.000000D+00  E= 4.010635D+00

 Vector  316  Occ=0.000000D+00  E= 4.034666D+00

 Vector  317  Occ=0.000000D+00  E= 4.061173D+00

 Vector  318  Occ=0.000000D+00  E= 4.070569D+00

 Vector  319  Occ=0.000000D+00  E= 4.102637D+00

 Vector  320  Occ=0.000000D+00  E= 4.102909D+00

 Vector  321  Occ=0.000000D+00  E= 4.106455D+00

 Vector  322  Occ=0.000000D+00  E= 4.152649D+00

 Vector  323  Occ=0.000000D+00  E= 4.207559D+00

 Vector  324  Occ=0.000000D+00  E= 4.230536D+00

 Vector  325  Occ=0.000000D+00  E= 4.237719D+00

 Vector  326  Occ=0.000000D+00  E= 4.332734D+00

 Vector  327  Occ=0.000000D+00  E= 4.346167D+00

 Vector  328  Occ=0.000000D+00  E= 4.390648D+00

 Vector  329  Occ=0.000000D+00  E= 4.420948D+00

 Vector  330  Occ=0.000000D+00  E= 4.445220D+00

 Vector  331  Occ=0.000000D+00  E= 4.465375D+00

 Vector  332  Occ=0.000000D+00  E= 4.486895D+00

 Vector  333  Occ=0.000000D+00  E= 4.491150D+00

 Vector  334  Occ=0.000000D+00  E= 4.507030D+00

 Vector  335  Occ=0.000000D+00  E= 4.519970D+00

 Vector  336  Occ=0.000000D+00  E= 4.575708D+00

 Vector  337  Occ=0.000000D+00  E= 4.627754D+00

 Vector  338  Occ=0.000000D+00  E= 4.651795D+00

 Vector  339  Occ=0.000000D+00  E= 4.657777D+00

 Vector  340  Occ=0.000000D+00  E= 4.703423D+00

 Vector  341  Occ=0.000000D+00  E= 4.720516D+00

 Vector  342  Occ=0.000000D+00  E= 4.750793D+00

 Vector  343  Occ=0.000000D+00  E= 4.754537D+00

 Vector  344  Occ=0.000000D+00  E= 4.768587D+00

 Vector  345  Occ=0.000000D+00  E= 4.802314D+00

 Vector  346  Occ=0.000000D+00  E= 4.806793D+00

 Vector  347  Occ=0.000000D+00  E= 4.807849D+00

 Vector  348  Occ=0.000000D+00  E= 4.823382D+00

 Vector  349  Occ=0.000000D+00  E= 4.858910D+00

 Vector  350  Occ=0.000000D+00  E= 4.903611D+00

 Vector  351  Occ=0.000000D+00  E= 4.934676D+00

 Vector  352  Occ=0.000000D+00  E= 4.949884D+00

 Vector  353  Occ=0.000000D+00  E= 4.959476D+00

 Vector  354  Occ=0.000000D+00  E= 4.982794D+00

 Vector  355  Occ=0.000000D+00  E= 5.086645D+00

 Vector  356  Occ=0.000000D+00  E= 5.089126D+00

 Vector  357  Occ=0.000000D+00  E= 5.093842D+00

 Vector  358  Occ=0.000000D+00  E= 5.168252D+00

 Vector  359  Occ=0.000000D+00  E= 5.261370D+00

 Vector  360  Occ=0.000000D+00  E= 5.323282D+00

 Vector  361  Occ=0.000000D+00  E= 5.323697D+00

 Vector  362  Occ=0.000000D+00  E= 5.409689D+00

 Vector  363  Occ=0.000000D+00  E= 5.414229D+00

 Vector  364  Occ=0.000000D+00  E= 5.437113D+00

 Vector  365  Occ=0.000000D+00  E= 5.621451D+00

 Vector  366  Occ=0.000000D+00  E= 5.635873D+00

 Vector  367  Occ=0.000000D+00  E= 5.682087D+00

 Vector  368  Occ=0.000000D+00  E= 5.754140D+00

 Vector  369  Occ=0.000000D+00  E= 5.805173D+00

 Vector  370  Occ=0.000000D+00  E= 5.916957D+00

 Vector  371  Occ=0.000000D+00  E= 5.931423D+00

 Vector  372  Occ=0.000000D+00  E= 6.048187D+00

 Vector  373  Occ=0.000000D+00  E= 6.165956D+00

 Vector  374  Occ=0.000000D+00  E= 6.254221D+00

 Vector  375  Occ=0.000000D+00  E= 6.407114D+00

 Vector  376  Occ=0.000000D+00  E= 6.451497D+00

 Vector  377  Occ=0.000000D+00  E= 6.604442D+00

 Vector  378  Occ=0.000000D+00  E= 6.866479D+00

 Vector  379  Occ=0.000000D+00  E= 1.506379D+01

 Vector  380  Occ=0.000000D+00  E= 1.507363D+01

 Vector  381  Occ=0.000000D+00  E= 1.597883D+01

 Vector  382  Occ=0.000000D+00  E= 1.765322D+01

 Vector  383  Occ=0.000000D+00  E= 1.800515D+01

 Vector  384  Occ=0.000000D+00  E= 1.806719D+01

     Multipole analysis of the density
     ---------------------------------

     L   x y z        total         alpha         beta         nuclear
     -   - - -        -----         -----         ----         -------
     0   0 0 0     -0.000000    -21.000000    -20.000000     41.000000

     1   1 0 0      0.021528      0.106608     -0.085080      0.000000
     1   0 1 0     -0.339668     -1.691002      1.351334     -0.000000
     1   0 0 1     -0.000001     -0.000001     -0.000000      0.000000

     2   2 0 0    -22.671527   -108.526029   -106.534985    192.389486
     2   1 1 0      0.189769     -0.489502     -1.115114      1.794385
     2   1 0 1      0.000000     -0.000001     -0.000001      0.000002
     2   0 2 0    -25.671462   -100.787751    -88.907050    164.023340
     2   0 1 1     -0.000005     -0.000004     -0.000003      0.000001

  Root   1         a              0.106951697 a.u.                2.9103 eV
     Dipole Oscillator Strength                    0.0012059439
  Root   2         a              0.126600629 a.u.                3.4450 eV
     Dipole Oscillator Strength                    0.0000000000
  Root   3         a              0.143319037 a.u.                3.8999 eV
     Dipole Oscillator Strength                    0.0000120035
  Root   4         a              0.169707116 a.u.                4.6180 eV
     Dipole Oscillator Strength                    0.0000000000
  Root   5         a              0.171503268 a.u.                4.6668 eV
     Dipole Oscillator Strength                    0.0002455682
  Root   6         a              0.173315817 a.u.                4.7162 eV
     Dipole Oscillator Strength                    0.0037429649
  Root   7         a              0.177311758 a.u.                4.8249 eV
     Dipole Oscillator Strength                    0.0000126126
  Root   8         a              0.192003792 a.u.                5.2247 eV
     Dipole Oscillator Strength                    0.0006845775
  Root   9         a              0.201861175 a.u.                5.4929 eV
     Dipole Oscillator Strength                    0.0064750068
  Root  10         a              0.210292771 a.u.                5.7224 eV
     Dipole Oscillator Strength                    0.0076741643
  Root  11         a              0.216217315 a.u.                5.8836 eV
     Dipole Oscillator Strength                    0.0015285207
  Root  12         a              0.223100428 a.u.                6.0709 eV
     Dipole Oscillator Strength                    0.0002806584
  Root  13         a              0.224583820 a.u.                6.1112 eV
     Dipole Oscillator Strength                    0.0037406376
  Root  14         a              0.227839051 a.u.                6.1998 eV
     Dipole Oscillator Strength                    0.0093614770
  Root  15         a              0.228605605 a.u.                6.2207 eV
     Dipole Oscillator Strength                    0.0000000000
  Root  16         a              0.229684156 a.u.                6.2500 eV
     Dipole Oscillator Strength                    0.0009958146
  Root  17         a              0.229994962 a.u.                6.2585 eV
     Dipole Oscillator Strength                    0.0000000001
  Root  18         a              0.231575908 a.u.                6.3015 eV
     Dipole Oscillator Strength                    0.0226666215
  Root  19         a              0.235961687 a.u.                6.4208 eV
     Dipole Oscillator Strength                    0.0001431801
  Root  20         a              0.241784718 a.u.                6.5793 eV
     Dipole Oscillator Strength                    0.0000000001
  Root  21         a              0.243234388 a.u.                6.6187 eV
     Dipole Oscillator Strength                    0.1028867034
  Root  22         a              0.245305435 a.u.                6.6751 eV
     Dipole Oscillator Strength                    0.0015931250
  Root  23         a              0.246393999 a.u.                6.7047 eV
     Dipole Oscillator Strength                    0.0337622086
  Root  24         a              0.247327130 a.u.                6.7301 eV
     Dipole Oscillator Strength                    0.0011379595
  Root  25         a              0.248340024 a.u.                6.7577 eV
     Dipole Oscillator Strength                    0.0000000001
  Root  26         a              0.250579907 a.u.                6.8186 eV
     Dipole Oscillator Strength                    0.0287563083
  Root  27         a              0.251986521 a.u.                6.8569 eV
     Dipole Oscillator Strength                    0.0101143905
  Root  28         a              0.252621076 a.u.                6.8742 eV
     Dipole Oscillator Strength                    0.0000000006
  Root  29         a              0.253982931 a.u.                6.9112 eV
     Dipole Oscillator Strength                    0.0000000008
  Root  30         a              0.254776628 a.u.                6.9328 eV
     Dipole Oscillator Strength                    0.0840997119
  Root  31         a              0.254777442 a.u.                6.9328 eV
     Dipole Oscillator Strength                    0.3817384201
  Root  32         a              0.259987826 a.u.                7.0746 eV
     Dipole Oscillator Strength                    0.0015495642
  Root  33         a              0.265465656 a.u.                7.2237 eV
     Dipole Oscillator Strength                    0.0000000000
  Root  34         a              0.267258225 a.u.                7.2725 eV
     Dipole Oscillator Strength                    0.2250604420
  Root  35         a              0.270821665 a.u.                7.3694 eV
     Dipole Oscillator Strength                    0.0000152213
  Root  36         a              0.271341252 a.u.                7.3836 eV
     Dipole Oscillator Strength                    0.0797577739
  Root  37         a              0.271363562 a.u.                7.3842 eV
     Dipole Oscillator Strength                    0.0004240110
  Root  38         a              0.271819009 a.u.                7.3966 eV
     Dipole Oscillator Strength                    0.0001055270
  Root  39         a              0.272317138 a.u.                7.4101 eV
     Dipole Oscillator Strength                    0.0000000001
  Root  40         a              0.272582040 a.u.                7.4173 eV
     Dipole Oscillator Strength                    0.0003169667
 Total times  cpu:     2912.6s     wall:     3009.9s
