============================== echo of input deck ==============================
echo
start

title "None"

geometry
C    -0.08747133    1.38824004    0.00000005
C    -1.26745633    0.69088483   -0.00000002
C    -1.16756057   -0.70446373   -0.00000002
C     0.08290336   -1.31602622    0.00000004
C     1.24676025   -0.55233333   -0.00000001
C     1.17072232    0.84450766    0.00000005
H    -2.23298291    1.17868884   -0.00000010
H    -2.06900927   -1.30385191   -0.00000009
H     0.15078929   -2.39542223   -0.00000000
H     2.21638116   -1.03369898   -0.00000013
H     2.06741924    1.44959376   -0.00000010
symmetry c1
end

basis spherical
 * library "aug-cc-pvtz"
end

dft
 direct
 mult 2
 iterations 500
 xc b3lyp
end

tddft
 nroots 40
 notriplet
 algorithm 1
end
task tddft energy
================================================================================

 Output coordinates in angstroms (scale by  1.889725989 to convert to a.u.)

  No.       Tag          Charge          X              Y              Z
 ---- ---------------- ---------- -------------- -------------- --------------
    1 C                    6.0000    -0.08747093     1.38823602     0.00000005
    2 C                    6.0000    -1.26745593     0.69088081    -0.00000002
    3 C                    6.0000    -1.16756017    -0.70446775    -0.00000002
    4 C                    6.0000     0.08290376    -1.31603024     0.00000004
    5 C                    6.0000     1.24676065    -0.55233735    -0.00000001
    6 C                    6.0000     1.17072272     0.84450364     0.00000005
    7 H                    1.0000    -2.23298251     1.17868482    -0.00000010
    8 H                    1.0000    -2.06900887    -1.30385593    -0.00000009
    9 H                    1.0000     0.15078969    -2.39542625    -0.00000000
   10 H                    1.0000     2.21638156    -1.03370300    -0.00000013
   11 H                    1.0000     2.06741964     1.44958974    -0.00000010

         Total DFT energy =     -231.646324863066

                    DFT Final Alpha Molecular Orbital Analysis
                    ------------------------------------------

 Vector    1  Occ=1.000000D+00  E=-1.020533D+01

 Vector  305  Occ=0.000000D+00  E= 3.874899D+00

 Vector  306  Occ=0.000000D+00  E= 3.900749D+00

 Vector  307  Occ=0.000000D+00  E= 3.909500D+00

 Vector  308  Occ=0.000000D+00  E= 3.921700D+00

 Vector  309  Occ=0.000000D+00  E= 3.926339D+00

 Vector  310  Occ=0.000000D+00  E= 3.952382D+00

 Vector  311  Occ=0.000000D+00  E= 3.958444D+00

 Vector  312  Occ=0.000000D+00  E= 3.962608D+00

 Vector  313  Occ=0.000000D+00  E= 3.989475D+00

 Vector  314  Occ=0.000000D+00  E= 3.994451D+00

 Vector  315  Occ=0.000000D+00  E= 4.010253D+00

 Vector  316  Occ=0.000000D+00  E= 4.033110D+00

 Vector  317  Occ=0.000000D+00  E= 4.060692D+00

 Vector  318  Occ=0.000000D+00  E= 4.070427D+00

 Vector  319  Occ=0.000000D+00  E= 4.103016D+00

 Vector  320  Occ=0.000000D+00  E= 4.103991D+00

 Vector  321  Occ=0.000000D+00  E= 4.105518D+00

 Vector  322  Occ=0.000000D+00  E= 4.153423D+00

 Vector  323  Occ=0.000000D+00  E= 4.207268D+00

 Vector  324  Occ=0.000000D+00  E= 4.228237D+00

 Vector  325  Occ=0.000000D+00  E= 4.236880D+00

 Vector  326  Occ=0.000000D+00  E= 4.331728D+00

 Vector  327  Occ=0.000000D+00  E= 4.345722D+00

 Vector  328  Occ=0.000000D+00  E= 4.390197D+00

 Vector  329  Occ=0.000000D+00  E= 4.420736D+00

 Vector  330  Occ=0.000000D+00  E= 4.444041D+00

 Vector  331  Occ=0.000000D+00  E= 4.461894D+00

 Vector  332  Occ=0.000000D+00  E= 4.486649D+00

 Vector  333  Occ=0.000000D+00  E= 4.491159D+00

 Vector  334  Occ=0.000000D+00  E= 4.506666D+00

 Vector  335  Occ=0.000000D+00  E= 4.520510D+00

 Vector  336  Occ=0.000000D+00  E= 4.575235D+00

 Vector  337  Occ=0.000000D+00  E= 4.626589D+00

 Vector  338  Occ=0.000000D+00  E= 4.651568D+00

 Vector  339  Occ=0.000000D+00  E= 4.657641D+00

 Vector  340  Occ=0.000000D+00  E= 4.705771D+00

 Vector  341  Occ=0.000000D+00  E= 4.720676D+00

 Vector  342  Occ=0.000000D+00  E= 4.750580D+00

 Vector  343  Occ=0.000000D+00  E= 4.752673D+00

 Vector  344  Occ=0.000000D+00  E= 4.769162D+00

 Vector  345  Occ=0.000000D+00  E= 4.801903D+00

 Vector  346  Occ=0.000000D+00  E= 4.805501D+00

 Vector  347  Occ=0.000000D+00  E= 4.807453D+00

 Vector  348  Occ=0.000000D+00  E= 4.822624D+00

 Vector  349  Occ=0.000000D+00  E= 4.858474D+00

 Vector  350  Occ=0.000000D+00  E= 4.902295D+00

 Vector  351  Occ=0.000000D+00  E= 4.935146D+00

 Vector  352  Occ=0.000000D+00  E= 4.949089D+00

 Vector  353  Occ=0.000000D+00  E= 4.960473D+00

 Vector  354  Occ=0.000000D+00  E= 4.982783D+00

 Vector  355  Occ=0.000000D+00  E= 5.086744D+00

 Vector  356  Occ=0.000000D+00  E= 5.088080D+00

 Vector  357  Occ=0.000000D+00  E= 5.093299D+00

 Vector  358  Occ=0.000000D+00  E= 5.167181D+00

 Vector  359  Occ=0.000000D+00  E= 5.259580D+00

 Vector  360  Occ=0.000000D+00  E= 5.323462D+00

 Vector  361  Occ=0.000000D+00  E= 5.323690D+00

 Vector  362  Occ=0.000000D+00  E= 5.410339D+00

 Vector  363  Occ=0.000000D+00  E= 5.415649D+00

 Vector  364  Occ=0.000000D+00  E= 5.436324D+00

 Vector  365  Occ=0.000000D+00  E= 5.620272D+00

 Vector  366  Occ=0.000000D+00  E= 5.636061D+00

 Vector  367  Occ=0.000000D+00  E= 5.682914D+00

 Vector  368  Occ=0.000000D+00  E= 5.749394D+00

 Vector  369  Occ=0.000000D+00  E= 5.803054D+00

 Vector  370  Occ=0.000000D+00  E= 5.920809D+00

 Vector  371  Occ=0.000000D+00  E= 5.929556D+00

 Vector  372  Occ=0.000000D+00  E= 6.045132D+00

 Vector  373  Occ=0.000000D+00  E= 6.165371D+00

 Vector  374  Occ=0.000000D+00  E= 6.253329D+00

 Vector  375  Occ=0.000000D+00  E= 6.406596D+00

 Vector  376  Occ=0.000000D+00  E= 6.451064D+00

 Vector  377  Occ=0.000000D+00  E= 6.604489D+00

 Vector  378  Occ=0.000000D+00  E= 6.864455D+00

 Vector  379  Occ=0.000000D+00  E= 1.504273D+01

 Vector  380  Occ=0.000000D+00  E= 1.507341D+01

 Vector  381  Occ=0.000000D+00  E= 1.597766D+01

 Vector  382  Occ=0.000000D+00  E= 1.764728D+01

 Vector  383  Occ=0.000000D+00  E= 1.799998D+01

 Vector  384  Occ=0.000000D+00  E= 1.806927D+01

     Multipole analysis of the density
     ---------------------------------

     L   x y z        total         alpha         beta         nuclear
     -   - - -        -----         -----         ----         -------
     0   0 0 0     -0.000000    -21.000000    -20.000000     41.000000

     1   1 0 0      0.021573      0.106825     -0.085251     -0.000000
     1   0 1 0     -0.340654     -1.694657      1.354003      0.000000
     1   0 0 1     -0.000001     -0.000001     -0.000000      0.000000

     2   2 0 0    -22.654492   -108.616637   -106.630113    192.592259
     2   1 1 0      0.192374     -0.497892     -1.125600      1.815866
     2   1 0 1      0.000000     -0.000001     -0.000001      0.000002
     2   0 2 0    -25.691307   -100.761605    -88.852948    163.923246
     2   0 1 1     -0.000005     -0.000004     -0.000003      0.000001

  Root   1         a              0.106220827 a.u.                2.8904 eV
     Dipole Oscillator Strength                    0.0012104650
  Root   2         a              0.126172263 a.u.                3.4333 eV
     Dipole Oscillator Strength                    0.0000000000
  Root   3         a              0.143281018 a.u.                3.8989 eV
     Dipole Oscillator Strength                    0.0000122906
  Root   4         a              0.170468288 a.u.                4.6387 eV
     Dipole Oscillator Strength                    0.0000000025
  Root   5         a              0.171433631 a.u.                4.6649 eV
     Dipole Oscillator Strength                    0.0002487758
  Root   6         a              0.173784945 a.u.                4.7289 eV
     Dipole Oscillator Strength                    0.0037587041
  Root   7         a              0.177130357 a.u.                4.8200 eV
     Dipole Oscillator Strength                    0.0000127522
  Root   8         a              0.191891297 a.u.                5.2216 eV
     Dipole Oscillator Strength                    0.0006922094
  Root   9         a              0.201767981 a.u.                5.4904 eV
     Dipole Oscillator Strength                    0.0064569162
  Root  10         a              0.210988797 a.u.                5.7413 eV
     Dipole Oscillator Strength                    0.0075752054
  Root  11         a              0.215772361 a.u.                5.8715 eV
     Dipole Oscillator Strength                    0.0015122222
  Root  12         a              0.222945897 a.u.                6.0667 eV
     Dipole Oscillator Strength                    0.0002767972
  Root  13         a              0.224558715 a.u.                6.1106 eV
     Dipole Oscillator Strength                    0.0035708644
  Root  14         a              0.228501921 a.u.                6.2179 eV
     Dipole Oscillator Strength                    0.0092767143
  Root  15         a              0.228683751 a.u.                6.2228 eV
     Dipole Oscillator Strength                    0.0000000034
  Root  16         a              0.229565488 a.u.                6.2468 eV
     Dipole Oscillator Strength                    0.0009916839
  Root  17         a              0.230074645 a.u.                6.2607 eV
     Dipole Oscillator Strength                    0.0000000044
  Root  18         a              0.232249587 a.u.                6.3198 eV
     Dipole Oscillator Strength                    0.0221308165
  Root  19         a              0.235383944 a.u.                6.4051 eV
     Dipole Oscillator Strength                    0.0001665222
  Root  20         a              0.241597290 a.u.                6.5742 eV
     Dipole Oscillator Strength                    0.0000000009
  Root  21         a              0.242555943 a.u.                6.6003 eV
     Dipole Oscillator Strength                    0.0951928590
  Root  22         a              0.245289762 a.u.                6.6747 eV
     Dipole Oscillator Strength                    0.0023037304
  Root  23         a              0.246388808 a.u.                6.7046 eV
     Dipole Oscillator Strength                    0.0320202614
  Root  24         a              0.247308331 a.u.                6.7296 eV
     Dipole Oscillator Strength                    0.0022060550
  Root  25         a              0.248202433 a.u.                6.7539 eV
     Dipole Oscillator Strength                    0.0000000224
  Root  26         a              0.251171546 a.u.                6.8347 eV
     Dipole Oscillator Strength                    0.0475102518
  Root  27         a              0.251903553 a.u.                6.8546 eV
     Dipole Oscillator Strength                    0.0100425257
  Root  28         a              0.252728729 a.u.                6.8771 eV
     Dipole Oscillator Strength                    0.0000000603
  Root  29         a              0.254101399 a.u.                6.9145 eV
     Dipole Oscillator Strength                    0.0000000011
  Root  30         a              0.254726407 a.u.                6.9315 eV
     Dipole Oscillator Strength                    0.3843026455
  Root  31         a              0.255335615 a.u.                6.9480 eV
     Dipole Oscillator Strength                    0.0696549390
  Root  32         a              0.260715867 a.u.                7.0944 eV
     Dipole Oscillator Strength                    0.0015794786
  Root  33         a              0.265330893 a.u.                7.2200 eV
     Dipole Oscillator Strength                    0.0000000001
  Root  34         a              0.267141416 a.u.                7.2693 eV
     Dipole Oscillator Strength                    0.2590076671
  Root  35         a              0.270928685 a.u.                7.3723 eV
     Dipole Oscillator Strength                    0.0000175033
  Root  36         a              0.271345838 a.u.                7.3837 eV
     Dipole Oscillator Strength                    0.0004370042
  Root  37         a              0.271698707 a.u.                7.3933 eV
     Dipole Oscillator Strength                    0.0460152285
  Root  38         a              0.271921364 a.u.                7.3994 eV
     Dipole Oscillator Strength                    0.0001331070
  Root  39         a              0.272213694 a.u.                7.4073 eV
     Dipole Oscillator Strength                    0.0000000071
  Root  40         a              0.272411013 a.u.                7.4127 eV
     Dipole Oscillator Strength                    0.0002877603
 Total times  cpu:     2940.5s     wall:     3039.0s
