============================== echo of input deck ==============================
echo
start

title "None"

geometry
C    -0.08743519    1.38771639    0.00000005
C    -1.26644881    0.69113155   -0.00000002
C    -1.16775521   -0.70460844   -0.00000002
C     0.08292661   -1.31615669    0.00000004
C     1.24695907   -0.55246573   -0.00000001
C     1.16968594    0.84462387    0.00000005
H    -2.22994390    1.18290979   -0.00000010
H    -2.06895104   -1.30435999   -0.00000009
H     0.15093614   -2.39556053    0.00000000
H     2.21630629   -1.03435983   -0.00000013
H     2.06383636    1.45344545   -0.00000010
symmetry c1
end

basis spherical
 * library "aug-cc-pvtz"
end

dft
 direct
 mult 2
 iterations 500
 xc b3lyp
end

tddft
 nroots 40
 notriplet
 algorithm 1
end
task tddft energy
================================================================================

 Output coordinates in angstroms (scale by  1.889725989 to convert to a.u.)

  No.       Tag          Charge          X              Y              Z
 ---- ---------------- ---------- -------------- -------------- --------------
    1 C                    6.0000    -0.08742978     1.38763052     0.00000005
    2 C                    6.0000    -1.26644340     0.69104568    -0.00000002
    3 C                    6.0000    -1.16774980    -0.70469431    -0.00000002
    4 C                    6.0000     0.08293202    -1.31624256     0.00000004
    5 C                    6.0000     1.24696448    -0.55255160    -0.00000001
    6 C                    6.0000     1.16969135     0.84453800     0.00000005
    7 H                    1.0000    -2.22993849     1.18282392    -0.00000010
    8 H                    1.0000    -2.06894563    -1.30444586    -0.00000009
    9 H                    1.0000     0.15094155    -2.39564640    -0.00000000
   10 H                    1.0000     2.21631170    -1.03444570    -0.00000013
   11 H                    1.0000     2.06384177     1.45335958    -0.00000010

         Total DFT energy =     -231.646323259623

                    DFT Final Alpha Molecular Orbital Analysis
                    ------------------------------------------

 Vector    1  Occ=1.000000D+00  E=-1.020490D+01

 Vector  305  Occ=0.000000D+00  E= 3.875066D+00

 Vector  306  Occ=0.000000D+00  E= 3.900077D+00

 Vector  307  Occ=0.000000D+00  E= 3.911021D+00

 Vector  308  Occ=0.000000D+00  E= 3.921616D+00

 Vector  309  Occ=0.000000D+00  E= 3.926791D+00

 Vector  310  Occ=0.000000D+00  E= 3.952216D+00

 Vector  311  Occ=0.000000D+00  E= 3.958220D+00

 Vector  312  Occ=0.000000D+00  E= 3.962574D+00

 Vector  313  Occ=0.000000D+00  E= 3.989859D+00

 Vector  314  Occ=0.000000D+00  E= 3.994766D+00

 Vector  315  Occ=0.000000D+00  E= 4.011377D+00

 Vector  316  Occ=0.000000D+00  E= 4.033537D+00

 Vector  317  Occ=0.000000D+00  E= 4.060405D+00

 Vector  318  Occ=0.000000D+00  E= 4.070608D+00

 Vector  319  Occ=0.000000D+00  E= 4.103506D+00

 Vector  320  Occ=0.000000D+00  E= 4.103747D+00

 Vector  321  Occ=0.000000D+00  E= 4.106121D+00

 Vector  322  Occ=0.000000D+00  E= 4.154955D+00

 Vector  323  Occ=0.000000D+00  E= 4.206814D+00

 Vector  324  Occ=0.000000D+00  E= 4.233388D+00

 Vector  325  Occ=0.000000D+00  E= 4.237252D+00

 Vector  326  Occ=0.000000D+00  E= 4.330915D+00

 Vector  327  Occ=0.000000D+00  E= 4.345937D+00

 Vector  328  Occ=0.000000D+00  E= 4.391398D+00

 Vector  329  Occ=0.000000D+00  E= 4.421084D+00

 Vector  330  Occ=0.000000D+00  E= 4.444451D+00

 Vector  331  Occ=0.000000D+00  E= 4.462156D+00

 Vector  332  Occ=0.000000D+00  E= 4.486348D+00

 Vector  333  Occ=0.000000D+00  E= 4.490810D+00

 Vector  334  Occ=0.000000D+00  E= 4.506272D+00

 Vector  335  Occ=0.000000D+00  E= 4.521381D+00

 Vector  336  Occ=0.000000D+00  E= 4.575803D+00

 Vector  337  Occ=0.000000D+00  E= 4.627868D+00

 Vector  338  Occ=0.000000D+00  E= 4.651379D+00

 Vector  339  Occ=0.000000D+00  E= 4.658493D+00

 Vector  340  Occ=0.000000D+00  E= 4.706818D+00

 Vector  341  Occ=0.000000D+00  E= 4.720231D+00

 Vector  342  Occ=0.000000D+00  E= 4.750918D+00

 Vector  343  Occ=0.000000D+00  E= 4.753538D+00

 Vector  344  Occ=0.000000D+00  E= 4.768533D+00

 Vector  345  Occ=0.000000D+00  E= 4.803441D+00

 Vector  346  Occ=0.000000D+00  E= 4.805462D+00

 Vector  347  Occ=0.000000D+00  E= 4.807774D+00

 Vector  348  Occ=0.000000D+00  E= 4.822914D+00

 Vector  349  Occ=0.000000D+00  E= 4.858096D+00

 Vector  350  Occ=0.000000D+00  E= 4.902879D+00

 Vector  351  Occ=0.000000D+00  E= 4.934405D+00

 Vector  352  Occ=0.000000D+00  E= 4.949925D+00

 Vector  353  Occ=0.000000D+00  E= 4.959354D+00

 Vector  354  Occ=0.000000D+00  E= 4.983325D+00

 Vector  355  Occ=0.000000D+00  E= 5.086703D+00

 Vector  356  Occ=0.000000D+00  E= 5.089354D+00

 Vector  357  Occ=0.000000D+00  E= 5.093035D+00

 Vector  358  Occ=0.000000D+00  E= 5.167418D+00

 Vector  359  Occ=0.000000D+00  E= 5.259765D+00

 Vector  360  Occ=0.000000D+00  E= 5.323707D+00

 Vector  361  Occ=0.000000D+00  E= 5.323876D+00

 Vector  362  Occ=0.000000D+00  E= 5.411799D+00

 Vector  363  Occ=0.000000D+00  E= 5.415393D+00

 Vector  364  Occ=0.000000D+00  E= 5.436779D+00

 Vector  365  Occ=0.000000D+00  E= 5.620930D+00

 Vector  366  Occ=0.000000D+00  E= 5.634831D+00

 Vector  367  Occ=0.000000D+00  E= 5.684057D+00

 Vector  368  Occ=0.000000D+00  E= 5.749284D+00

 Vector  369  Occ=0.000000D+00  E= 5.803031D+00

 Vector  370  Occ=0.000000D+00  E= 5.919951D+00

 Vector  371  Occ=0.000000D+00  E= 5.929646D+00

 Vector  372  Occ=0.000000D+00  E= 6.049636D+00

 Vector  373  Occ=0.000000D+00  E= 6.166427D+00

 Vector  374  Occ=0.000000D+00  E= 6.252944D+00

 Vector  375  Occ=0.000000D+00  E= 6.407401D+00

 Vector  376  Occ=0.000000D+00  E= 6.451032D+00

 Vector  377  Occ=0.000000D+00  E= 6.604499D+00

 Vector  378  Occ=0.000000D+00  E= 6.865930D+00

 Vector  379  Occ=0.000000D+00  E= 1.505724D+01

 Vector  380  Occ=0.000000D+00  E= 1.506976D+01

 Vector  381  Occ=0.000000D+00  E= 1.598359D+01

 Vector  382  Occ=0.000000D+00  E= 1.764837D+01

 Vector  383  Occ=0.000000D+00  E= 1.801252D+01

 Vector  384  Occ=0.000000D+00  E= 1.806495D+01

     Multipole analysis of the density
     ---------------------------------

     L   x y z        total         alpha         beta         nuclear
     -   - - -        -----         -----         ----         -------
     0   0 0 0     -0.000000    -21.000000    -20.000000     41.000000

     1   1 0 0      0.021500      0.106765     -0.085265      0.000000
     1   0 1 0     -0.339300     -1.693539      1.354238     -0.000000
     1   0 0 1     -0.000001     -0.000001     -0.000000      0.000000

     2   2 0 0    -22.670537   -108.531639   -106.541616    192.402717
     2   1 1 0      0.189954     -0.489590     -1.116755      1.796299
     2   1 0 1      0.000000     -0.000001     -0.000001      0.000002
     2   0 2 0    -25.673412   -100.791824    -88.887566    164.005979
     2   0 1 1     -0.000005     -0.000004     -0.000003      0.000001

  Root   1         a              0.106424249 a.u.                2.8960 eV
     Dipole Oscillator Strength                    0.0012111253
  Root   2         a              0.126116738 a.u.                3.4318 eV
     Dipole Oscillator Strength                    0.0000000000
  Root   3         a              0.143296631 a.u.                3.8993 eV
     Dipole Oscillator Strength                    0.0000120430
  Root   4         a              0.170356503 a.u.                4.6356 eV
     Dipole Oscillator Strength                    0.0000000000
  Root   5         a              0.171486461 a.u.                4.6664 eV
     Dipole Oscillator Strength                    0.0002480806
  Root   6         a              0.173990648 a.u.                4.7345 eV
     Dipole Oscillator Strength                    0.0037551030
  Root   7         a              0.177278501 a.u.                4.8240 eV
     Dipole Oscillator Strength                    0.0000129646
  Root   8         a              0.191970801 a.u.                5.2238 eV
     Dipole Oscillator Strength                    0.0006883264
  Root   9         a              0.201837358 a.u.                5.4923 eV
     Dipole Oscillator Strength                    0.0064429534
  Root  10         a              0.210948345 a.u.                5.7402 eV
     Dipole Oscillator Strength                    0.0075788628
  Root  11         a              0.215699810 a.u.                5.8695 eV
     Dipole Oscillator Strength                    0.0015037898
  Root  12         a              0.223088757 a.u.                6.0706 eV
     Dipole Oscillator Strength                    0.0002851126
  Root  13         a              0.224607352 a.u.                6.1119 eV
     Dipole Oscillator Strength                    0.0041011677
  Root  14         a              0.228497532 a.u.                6.2177 eV
     Dipole Oscillator Strength                    0.0092633827
  Root  15         a              0.228615672 a.u.                6.2210 eV
     Dipole Oscillator Strength                    0.0000000002
  Root  16         a              0.229693511 a.u.                6.2503 eV
     Dipole Oscillator Strength                    0.0010118335
  Root  17         a              0.230000810 a.u.                6.2586 eV
     Dipole Oscillator Strength                    0.0000000001
  Root  18         a              0.232176166 a.u.                6.3178 eV
     Dipole Oscillator Strength                    0.0225060944
  Root  19         a              0.235449322 a.u.                6.4069 eV
     Dipole Oscillator Strength                    0.0001692354
  Root  20         a              0.241764928 a.u.                6.5788 eV
     Dipole Oscillator Strength                    0.0000000001
  Root  21         a              0.242682653 a.u.                6.6037 eV
     Dipole Oscillator Strength                    0.0951780612
  Root  22         a              0.245300221 a.u.                6.6750 eV
     Dipole Oscillator Strength                    0.0017360664
  Root  23         a              0.246391129 a.u.                6.7046 eV
     Dipole Oscillator Strength                    0.0334765883
  Root  24         a              0.247317264 a.u.                6.7298 eV
     Dipole Oscillator Strength                    0.0012535036
  Root  25         a              0.248343011 a.u.                6.7578 eV
     Dipole Oscillator Strength                    0.0000000001
  Root  26         a              0.251132955 a.u.                6.8337 eV
     Dipole Oscillator Strength                    0.0438727173
  Root  27         a              0.251993461 a.u.                6.8571 eV
     Dipole Oscillator Strength                    0.0100945288
  Root  28         a              0.252631305 a.u.                6.8745 eV
     Dipole Oscillator Strength                    0.0000000007
  Root  29         a              0.253990844 a.u.                6.9114 eV
     Dipole Oscillator Strength                    0.0000000006
  Root  30         a              0.254789050 a.u.                6.9332 eV
     Dipole Oscillator Strength                    0.3886437309
  Root  31         a              0.255346685 a.u.                6.9483 eV
     Dipole Oscillator Strength                    0.0681974353
  Root  32         a              0.260671029 a.u.                7.0932 eV
     Dipole Oscillator Strength                    0.0015866352
  Root  33         a              0.265448413 a.u.                7.2232 eV
     Dipole Oscillator Strength                    0.0000000000
  Root  34         a              0.267200141 a.u.                7.2709 eV
     Dipole Oscillator Strength                    0.2562478573
  Root  35         a              0.270827833 a.u.                7.3696 eV
     Dipole Oscillator Strength                    0.0000161714
  Root  36         a              0.271385775 a.u.                7.3848 eV
     Dipole Oscillator Strength                    0.0004311482
  Root  37         a              0.271718138 a.u.                7.3938 eV
     Dipole Oscillator Strength                    0.0513740855
  Root  38         a              0.271823637 a.u.                7.3967 eV
     Dipole Oscillator Strength                    0.0001111239
  Root  39         a              0.272320489 a.u.                7.4102 eV
     Dipole Oscillator Strength                    0.0000000001
  Root  40         a              0.272529468 a.u.                7.4159 eV
     Dipole Oscillator Strength                    0.0003097366
 Total times  cpu:     2669.5s     wall:     2752.9s
