============================== echo of input deck ==============================
echo
start

title "None"

geometry
C    -0.08747224    1.38830409   -0.00000004
C    -1.26735482    0.69112092    0.00105290
C    -1.16733630   -0.70470852   -0.00107760
C     0.08291598   -1.31598916    0.00000004
C     1.24655610   -0.55261762    0.00107748
C     1.17058620    0.84472727   -0.00105269
H    -2.23189055    1.18090100    0.00246457
H    -2.06748412   -1.30603725   -0.00237841
H     0.15092404   -2.39537432    0.00000018
H     2.21506130   -1.03620839    0.00237837
H     2.06601969    1.45169726   -0.00246495
symmetry c1
end

basis spherical
 * library "aug-cc-pvtz"
end

dft
 direct
 mult 2
 iterations 500
 xc b3lyp
end

tddft
 nroots 40
 notriplet
 algorithm 1
end
task tddft energy
================================================================================

 Output coordinates in angstroms (scale by  1.889725989 to convert to a.u.)

  No.       Tag          Charge          X              Y              Z
 ---- ---------------- ---------- -------------- -------------- --------------
    1 C                    6.0000    -0.08747224     1.38830409    -0.00000005
    2 C                    6.0000    -1.26735482     0.69112092     0.00105289
    3 C                    6.0000    -1.16733630    -0.70470852    -0.00107761
    4 C                    6.0000     0.08291598    -1.31598916     0.00000003
    5 C                    6.0000     1.24655610    -0.55261762     0.00107747
    6 C                    6.0000     1.17058620     0.84472727    -0.00105270
    7 H                    1.0000    -2.23189055     1.18090100     0.00246456
    8 H                    1.0000    -2.06748412    -1.30603725    -0.00237842
    9 H                    1.0000     0.15092404    -2.39537432     0.00000017
   10 H                    1.0000     2.21506130    -1.03620839     0.00237836
   11 H                    1.0000     2.06601969     1.45169726    -0.00246496

         Total DFT energy =     -231.646326546898

                    DFT Final Alpha Molecular Orbital Analysis
                    ------------------------------------------

 Vector    1  Occ=1.000000D+00  E=-1.020525D+01

 Vector  305  Occ=0.000000D+00  E= 3.874561D+00

 Vector  306  Occ=0.000000D+00  E= 3.900121D+00

 Vector  307  Occ=0.000000D+00  E= 3.910049D+00

 Vector  308  Occ=0.000000D+00  E= 3.921967D+00

 Vector  309  Occ=0.000000D+00  E= 3.926215D+00

 Vector  310  Occ=0.000000D+00  E= 3.952400D+00

 Vector  311  Occ=0.000000D+00  E= 3.958705D+00

 Vector  312  Occ=0.000000D+00  E= 3.962808D+00

 Vector  313  Occ=0.000000D+00  E= 3.989448D+00

 Vector  314  Occ=0.000000D+00  E= 3.994131D+00

 Vector  315  Occ=0.000000D+00  E= 4.010697D+00

 Vector  316  Occ=0.000000D+00  E= 4.033090D+00

 Vector  317  Occ=0.000000D+00  E= 4.060720D+00

 Vector  318  Occ=0.000000D+00  E= 4.069998D+00

 Vector  319  Occ=0.000000D+00  E= 4.102909D+00

 Vector  320  Occ=0.000000D+00  E= 4.103512D+00

 Vector  321  Occ=0.000000D+00  E= 4.105878D+00

 Vector  322  Occ=0.000000D+00  E= 4.153999D+00

 Vector  323  Occ=0.000000D+00  E= 4.206787D+00

 Vector  324  Occ=0.000000D+00  E= 4.230596D+00

 Vector  325  Occ=0.000000D+00  E= 4.236974D+00

 Vector  326  Occ=0.000000D+00  E= 4.330826D+00

 Vector  327  Occ=0.000000D+00  E= 4.345456D+00

 Vector  328  Occ=0.000000D+00  E= 4.390487D+00

 Vector  329  Occ=0.000000D+00  E= 4.420640D+00

 Vector  330  Occ=0.000000D+00  E= 4.444570D+00

 Vector  331  Occ=0.000000D+00  E= 4.462568D+00

 Vector  332  Occ=0.000000D+00  E= 4.485980D+00

 Vector  333  Occ=0.000000D+00  E= 4.490598D+00

 Vector  334  Occ=0.000000D+00  E= 4.506295D+00

 Vector  335  Occ=0.000000D+00  E= 4.520576D+00

 Vector  336  Occ=0.000000D+00  E= 4.575946D+00

 Vector  337  Occ=0.000000D+00  E= 4.627113D+00

 Vector  338  Occ=0.000000D+00  E= 4.651226D+00

 Vector  339  Occ=0.000000D+00  E= 4.658441D+00

 Vector  340  Occ=0.000000D+00  E= 4.705190D+00

 Vector  341  Occ=0.000000D+00  E= 4.720353D+00

 Vector  342  Occ=0.000000D+00  E= 4.750771D+00

 Vector  343  Occ=0.000000D+00  E= 4.754481D+00

 Vector  344  Occ=0.000000D+00  E= 4.767741D+00

 Vector  345  Occ=0.000000D+00  E= 4.802308D+00

 Vector  346  Occ=0.000000D+00  E= 4.805047D+00

 Vector  347  Occ=0.000000D+00  E= 4.807683D+00

 Vector  348  Occ=0.000000D+00  E= 4.822848D+00

 Vector  349  Occ=0.000000D+00  E= 4.857678D+00

 Vector  350  Occ=0.000000D+00  E= 4.903567D+00

 Vector  351  Occ=0.000000D+00  E= 4.933806D+00

 Vector  352  Occ=0.000000D+00  E= 4.949673D+00

 Vector  353  Occ=0.000000D+00  E= 4.959774D+00

 Vector  354  Occ=0.000000D+00  E= 4.982613D+00

 Vector  355  Occ=0.000000D+00  E= 5.085765D+00

 Vector  356  Occ=0.000000D+00  E= 5.088840D+00

 Vector  357  Occ=0.000000D+00  E= 5.093061D+00

 Vector  358  Occ=0.000000D+00  E= 5.167002D+00

 Vector  359  Occ=0.000000D+00  E= 5.260310D+00

 Vector  360  Occ=0.000000D+00  E= 5.323270D+00

 Vector  361  Occ=0.000000D+00  E= 5.323635D+00

 Vector  362  Occ=0.000000D+00  E= 5.410782D+00

 Vector  363  Occ=0.000000D+00  E= 5.415701D+00

 Vector  364  Occ=0.000000D+00  E= 5.436362D+00

 Vector  365  Occ=0.000000D+00  E= 5.620435D+00

 Vector  366  Occ=0.000000D+00  E= 5.635077D+00

 Vector  367  Occ=0.000000D+00  E= 5.682458D+00

 Vector  368  Occ=0.000000D+00  E= 5.749047D+00

 Vector  369  Occ=0.000000D+00  E= 5.802536D+00

 Vector  370  Occ=0.000000D+00  E= 5.919774D+00

 Vector  371  Occ=0.000000D+00  E= 5.930074D+00

 Vector  372  Occ=0.000000D+00  E= 6.047834D+00

 Vector  373  Occ=0.000000D+00  E= 6.165662D+00

 Vector  374  Occ=0.000000D+00  E= 6.253108D+00

 Vector  375  Occ=0.000000D+00  E= 6.406669D+00

 Vector  376  Occ=0.000000D+00  E= 6.449967D+00

 Vector  377  Occ=0.000000D+00  E= 6.604571D+00

 Vector  378  Occ=0.000000D+00  E= 6.864807D+00

 Vector  379  Occ=0.000000D+00  E= 1.504895D+01

 Vector  380  Occ=0.000000D+00  E= 1.506631D+01

 Vector  381  Occ=0.000000D+00  E= 1.597866D+01

 Vector  382  Occ=0.000000D+00  E= 1.764797D+01

 Vector  383  Occ=0.000000D+00  E= 1.800504D+01

 Vector  384  Occ=0.000000D+00  E= 1.806314D+01

     Multipole analysis of the density
     ---------------------------------

     L   x y z        total         alpha         beta         nuclear
     -   - - -        -----         -----         ----         -------
     0   0 0 0     -0.000000    -21.000000    -20.000000     41.000000

     1   1 0 0      0.021581      0.106833     -0.085252     -0.000000
     1   0 1 0     -0.340554     -1.694599      1.354046      0.000000
     1   0 0 1      0.000000      0.000000     -0.000000     -0.000000

     2   2 0 0    -22.668292   -108.564858   -106.579927    192.476493
     2   1 1 0      0.190313     -0.490519     -1.118463      1.799295
     2   1 0 1     -0.000611      0.000028      0.000080     -0.000719
     2   0 2 0    -25.676848   -100.810436    -88.898971    164.032559
     2   0 1 1     -0.000040      0.000001      0.000004     -0.000046

  Root   1         a              0.106293217 a.u.                2.8924 eV
     Dipole Oscillator Strength                    0.0012113191
  Root   2         a              0.126062321 a.u.                3.4303 eV
     Dipole Oscillator Strength                    0.0000001164
  Root   3         a              0.143226407 a.u.                3.8974 eV
     Dipole Oscillator Strength                    0.0000121957
  Root   4         a              0.170397986 a.u.                4.6368 eV
     Dipole Oscillator Strength                    0.0000001846
  Root   5         a              0.171410792 a.u.                4.6643 eV
     Dipole Oscillator Strength                    0.0002490736
  Root   6         a              0.173942781 a.u.                4.7332 eV
     Dipole Oscillator Strength                    0.0037552643
  Root   7         a              0.177209716 a.u.                4.8221 eV
     Dipole Oscillator Strength                    0.0000130117
  Root   8         a              0.191912855 a.u.                5.2222 eV
     Dipole Oscillator Strength                    0.0006899706
  Root   9         a              0.201773556 a.u.                5.4905 eV
     Dipole Oscillator Strength                    0.0064718517
  Root  10         a              0.211027374 a.u.                5.7423 eV
     Dipole Oscillator Strength                    0.0075582759
  Root  11         a              0.215667679 a.u.                5.8686 eV
     Dipole Oscillator Strength                    0.0015008170
  Root  12         a              0.223037845 a.u.                6.0692 eV
     Dipole Oscillator Strength                    0.0002776974
  Root  13         a              0.224548932 a.u.                6.1103 eV
     Dipole Oscillator Strength                    0.0041256747
  Root  14         a              0.228571265 a.u.                6.2197 eV
     Dipole Oscillator Strength                    0.0092150005
  Root  15         a              0.228592952 a.u.                6.2203 eV
     Dipole Oscillator Strength                    0.0000001003
  Root  16         a              0.229659190 a.u.                6.2493 eV
     Dipole Oscillator Strength                    0.0009950996
  Root  17         a              0.229981202 a.u.                6.2581 eV
     Dipole Oscillator Strength                    0.0000005867
  Root  18         a              0.232246115 a.u.                6.3197 eV
     Dipole Oscillator Strength                    0.0225495568
  Root  19         a              0.235377539 a.u.                6.4050 eV
     Dipole Oscillator Strength                    0.0001695332
  Root  20         a              0.241719202 a.u.                6.5775 eV
     Dipole Oscillator Strength                    0.0000010735
  Root  21         a              0.242598632 a.u.                6.6014 eV
     Dipole Oscillator Strength                    0.0951474519
  Root  22         a              0.245274220 a.u.                6.6743 eV
     Dipole Oscillator Strength                    0.0018042485
  Root  23         a              0.246367511 a.u.                6.7040 eV
     Dipole Oscillator Strength                    0.0333330790
  Root  24         a              0.247299707 a.u.                6.7294 eV
     Dipole Oscillator Strength                    0.0013553899
  Root  25         a              0.248313806 a.u.                6.7570 eV
     Dipole Oscillator Strength                    0.0000000111
  Root  26         a              0.251184628 a.u.                6.8351 eV
     Dipole Oscillator Strength                    0.0473003126
  Root  27         a              0.251973146 a.u.                6.8565 eV
     Dipole Oscillator Strength                    0.0100864074
  Root  28         a              0.252620713 a.u.                6.8742 eV
     Dipole Oscillator Strength                    0.0000011247
  Root  29         a              0.253986828 a.u.                6.9113 eV
     Dipole Oscillator Strength                    0.0000000038
  Root  30         a              0.254756149 a.u.                6.9323 eV
     Dipole Oscillator Strength                    0.3853274968
  Root  31         a              0.255406195 a.u.                6.9500 eV
     Dipole Oscillator Strength                    0.0692324361
  Root  32         a              0.260753079 a.u.                7.0955 eV
     Dipole Oscillator Strength                    0.0015922384
  Root  33         a              0.265399873 a.u.                7.2219 eV
     Dipole Oscillator Strength                    0.0000485802
  Root  34         a              0.267189630 a.u.                7.2706 eV
     Dipole Oscillator Strength                    0.2578126682
  Root  35         a              0.270807621 a.u.                7.3691 eV
     Dipole Oscillator Strength                    0.0000166814
  Root  36         a              0.271250816 a.u.                7.3811 eV
     Dipole Oscillator Strength                    0.0004298459
  Root  37         a              0.271756288 a.u.                7.3949 eV
     Dipole Oscillator Strength                    0.0477062055
  Root  38         a              0.271806768 a.u.                7.3962 eV
     Dipole Oscillator Strength                    0.0001122142
  Root  39         a              0.272284613 a.u.                7.4092 eV
     Dipole Oscillator Strength                    0.0000014653
  Root  40         a              0.272509360 a.u.                7.4154 eV
     Dipole Oscillator Strength                    0.0003131982
 Total times  cpu:     3953.1s     wall:     4083.2s
