============================== echo of input deck ==============================
echo
start

title "None"

geometry
C    -0.08747224    1.38830409   -0.00072955
C    -1.26735482    0.69112092    0.00056052
C    -1.16733630   -0.70470852   -0.00092605
C     0.08291598   -1.31598916    0.00079419
C     1.24655610   -0.55261762   -0.00092604
C     1.17058620    0.84472727    0.00056067
H    -2.23189055    1.18090100    0.00270936
H    -2.06748412   -1.30603725   -0.00029531
H     0.15092404   -2.39537432    0.00310453
H     2.21506130   -1.03620839   -0.00029576
H     2.06601969    1.45169726    0.00270960
symmetry c1
end

basis spherical
 * library "aug-cc-pvtz"
end

dft
 direct
 mult 2
 iterations 500
 xc b3lyp
end

tddft
 nroots 40
 notriplet
 algorithm 1
end
task tddft energy
================================================================================

 Output coordinates in angstroms (scale by  1.889725989 to convert to a.u.)

  No.       Tag          Charge          X              Y              Z
 ---- ---------------- ---------- -------------- -------------- --------------
    1 C                    6.0000    -0.08747224     1.38830409    -0.00082552
    2 C                    6.0000    -1.26735482     0.69112092     0.00046455
    3 C                    6.0000    -1.16733630    -0.70470852    -0.00102202
    4 C                    6.0000     0.08291598    -1.31598916     0.00069822
    5 C                    6.0000     1.24655610    -0.55261762    -0.00102201
    6 C                    6.0000     1.17058620     0.84472727     0.00046470
    7 H                    1.0000    -2.23189055     1.18090100     0.00261339
    8 H                    1.0000    -2.06748412    -1.30603725    -0.00039128
    9 H                    1.0000     0.15092404    -2.39537432     0.00300856
   10 H                    1.0000     2.21506130    -1.03620839    -0.00039173
   11 H                    1.0000     2.06601969     1.45169726     0.00261363

         Total DFT energy =     -231.646325336830

                    DFT Final Alpha Molecular Orbital Analysis
                    ------------------------------------------

 Vector    1  Occ=1.000000D+00  E=-1.020525D+01

 Vector  305  Occ=0.000000D+00  E= 3.874556D+00

 Vector  306  Occ=0.000000D+00  E= 3.900108D+00

 Vector  307  Occ=0.000000D+00  E= 3.910059D+00

 Vector  308  Occ=0.000000D+00  E= 3.921982D+00

 Vector  309  Occ=0.000000D+00  E= 3.926199D+00

 Vector  310  Occ=0.000000D+00  E= 3.952400D+00

 Vector  311  Occ=0.000000D+00  E= 3.958716D+00

 Vector  312  Occ=0.000000D+00  E= 3.962816D+00

 Vector  313  Occ=0.000000D+00  E= 3.989432D+00

 Vector  314  Occ=0.000000D+00  E= 3.994123D+00

 Vector  315  Occ=0.000000D+00  E= 4.010704D+00

 Vector  316  Occ=0.000000D+00  E= 4.033080D+00

 Vector  317  Occ=0.000000D+00  E= 4.060729D+00

 Vector  318  Occ=0.000000D+00  E= 4.069985D+00

 Vector  319  Occ=0.000000D+00  E= 4.102922D+00

 Vector  320  Occ=0.000000D+00  E= 4.103496D+00

 Vector  321  Occ=0.000000D+00  E= 4.105894D+00

 Vector  322  Occ=0.000000D+00  E= 4.153996D+00

 Vector  323  Occ=0.000000D+00  E= 4.206777D+00

 Vector  324  Occ=0.000000D+00  E= 4.230591D+00

 Vector  325  Occ=0.000000D+00  E= 4.236969D+00

 Vector  326  Occ=0.000000D+00  E= 4.330823D+00

 Vector  327  Occ=0.000000D+00  E= 4.345454D+00

 Vector  328  Occ=0.000000D+00  E= 4.390495D+00

 Vector  329  Occ=0.000000D+00  E= 4.420634D+00

 Vector  330  Occ=0.000000D+00  E= 4.444573D+00

 Vector  331  Occ=0.000000D+00  E= 4.462575D+00

 Vector  332  Occ=0.000000D+00  E= 4.485983D+00

 Vector  333  Occ=0.000000D+00  E= 4.490580D+00

 Vector  334  Occ=0.000000D+00  E= 4.506316D+00

 Vector  335  Occ=0.000000D+00  E= 4.520572D+00

 Vector  336  Occ=0.000000D+00  E= 4.575901D+00

 Vector  337  Occ=0.000000D+00  E= 4.627148D+00

 Vector  338  Occ=0.000000D+00  E= 4.651231D+00

 Vector  339  Occ=0.000000D+00  E= 4.658431D+00

 Vector  340  Occ=0.000000D+00  E= 4.705169D+00

 Vector  341  Occ=0.000000D+00  E= 4.720353D+00

 Vector  342  Occ=0.000000D+00  E= 4.750767D+00

 Vector  343  Occ=0.000000D+00  E= 4.754480D+00

 Vector  344  Occ=0.000000D+00  E= 4.767740D+00

 Vector  345  Occ=0.000000D+00  E= 4.802314D+00

 Vector  346  Occ=0.000000D+00  E= 4.805044D+00

 Vector  347  Occ=0.000000D+00  E= 4.807685D+00

 Vector  348  Occ=0.000000D+00  E= 4.822851D+00

 Vector  349  Occ=0.000000D+00  E= 4.857662D+00

 Vector  350  Occ=0.000000D+00  E= 4.903567D+00

 Vector  351  Occ=0.000000D+00  E= 4.933797D+00

 Vector  352  Occ=0.000000D+00  E= 4.949666D+00

 Vector  353  Occ=0.000000D+00  E= 4.959770D+00

 Vector  354  Occ=0.000000D+00  E= 4.982598D+00

 Vector  355  Occ=0.000000D+00  E= 5.085756D+00

 Vector  356  Occ=0.000000D+00  E= 5.088861D+00

 Vector  357  Occ=0.000000D+00  E= 5.093074D+00

 Vector  358  Occ=0.000000D+00  E= 5.167016D+00

 Vector  359  Occ=0.000000D+00  E= 5.260312D+00

 Vector  360  Occ=0.000000D+00  E= 5.323264D+00

 Vector  361  Occ=0.000000D+00  E= 5.323618D+00

 Vector  362  Occ=0.000000D+00  E= 5.410779D+00

 Vector  363  Occ=0.000000D+00  E= 5.415677D+00

 Vector  364  Occ=0.000000D+00  E= 5.436361D+00

 Vector  365  Occ=0.000000D+00  E= 5.620442D+00

 Vector  366  Occ=0.000000D+00  E= 5.635082D+00

 Vector  367  Occ=0.000000D+00  E= 5.682418D+00

 Vector  368  Occ=0.000000D+00  E= 5.749049D+00

 Vector  369  Occ=0.000000D+00  E= 5.802528D+00

 Vector  370  Occ=0.000000D+00  E= 5.919765D+00

 Vector  371  Occ=0.000000D+00  E= 5.930071D+00

 Vector  372  Occ=0.000000D+00  E= 6.047834D+00

 Vector  373  Occ=0.000000D+00  E= 6.165658D+00

 Vector  374  Occ=0.000000D+00  E= 6.253109D+00

 Vector  375  Occ=0.000000D+00  E= 6.406659D+00

 Vector  376  Occ=0.000000D+00  E= 6.449956D+00

 Vector  377  Occ=0.000000D+00  E= 6.604581D+00

 Vector  378  Occ=0.000000D+00  E= 6.864779D+00

 Vector  379  Occ=0.000000D+00  E= 1.504893D+01

 Vector  380  Occ=0.000000D+00  E= 1.506635D+01

 Vector  381  Occ=0.000000D+00  E= 1.597880D+01

 Vector  382  Occ=0.000000D+00  E= 1.764793D+01

 Vector  383  Occ=0.000000D+00  E= 1.800501D+01

 Vector  384  Occ=0.000000D+00  E= 1.806309D+01

     Multipole analysis of the density
     ---------------------------------

     L   x y z        total         alpha         beta         nuclear
     -   - - -        -----         -----         ----         -------
     0   0 0 0     -0.000000    -21.000000    -20.000000     41.000000

     1   1 0 0      0.021581      0.106833     -0.085252     -0.000000
     1   0 1 0     -0.340558     -1.694600      1.354042      0.000000
     1   0 0 1      0.002460      0.001532      0.000927      0.000000

     2   2 0 0    -22.668304   -108.564869   -106.579929    192.476493
     2   1 1 0      0.190315     -0.490519     -1.118462      1.799295
     2   1 0 1     -0.000127     -0.000029     -0.000057     -0.000041
     2   0 2 0    -25.676882   -100.810447    -88.898994    164.032559
     2   0 1 1      0.002011      0.000435      0.000888      0.000689

  Root   1         a              0.106293821 a.u.                2.8924 eV
     Dipole Oscillator Strength                    0.0012117172
  Root   2         a              0.126063232 a.u.                3.4304 eV
     Dipole Oscillator Strength                    0.0000000387
  Root   3         a              0.143225254 a.u.                3.8974 eV
     Dipole Oscillator Strength                    0.0000121831
  Root   4         a              0.170388498 a.u.                4.6365 eV
     Dipole Oscillator Strength                    0.0000006050
  Root   5         a              0.171418934 a.u.                4.6645 eV
     Dipole Oscillator Strength                    0.0002488781
  Root   6         a              0.173939360 a.u.                4.7331 eV
     Dipole Oscillator Strength                    0.0037528646
  Root   7         a              0.177210624 a.u.                4.8221 eV
     Dipole Oscillator Strength                    0.0000153003
  Root   8         a              0.191911982 a.u.                5.2222 eV
     Dipole Oscillator Strength                    0.0006902384
  Root   9         a              0.201773274 a.u.                5.4905 eV
     Dipole Oscillator Strength                    0.0064706596
  Root  10         a              0.211025267 a.u.                5.7423 eV
     Dipole Oscillator Strength                    0.0075574377
  Root  11         a              0.215669357 a.u.                5.8687 eV
     Dipole Oscillator Strength                    0.0015010020
  Root  12         a              0.223037426 a.u.                6.0692 eV
     Dipole Oscillator Strength                    0.0002778747
  Root  13         a              0.224548611 a.u.                6.1103 eV
     Dipole Oscillator Strength                    0.0041233461
  Root  14         a              0.228569473 a.u.                6.2197 eV
     Dipole Oscillator Strength                    0.0092079092
  Root  15         a              0.228592352 a.u.                6.2203 eV
     Dipole Oscillator Strength                    0.0000071497
  Root  16         a              0.229659416 a.u.                6.2494 eV
     Dipole Oscillator Strength                    0.0010059989
  Root  17         a              0.229980706 a.u.                6.2581 eV
     Dipole Oscillator Strength                    0.0000000482
  Root  18         a              0.232244984 a.u.                6.3197 eV
     Dipole Oscillator Strength                    0.0225414761
  Root  19         a              0.235376737 a.u.                6.4049 eV
     Dipole Oscillator Strength                    0.0001736035
  Root  20         a              0.241719168 a.u.                6.5775 eV
     Dipole Oscillator Strength                    0.0000001609
  Root  21         a              0.242599852 a.u.                6.6015 eV
     Dipole Oscillator Strength                    0.0951625906
  Root  22         a              0.245274056 a.u.                6.6742 eV
     Dipole Oscillator Strength                    0.0018058759
  Root  23         a              0.246367315 a.u.                6.7040 eV
     Dipole Oscillator Strength                    0.0333325137
  Root  24         a              0.247299540 a.u.                6.7294 eV
     Dipole Oscillator Strength                    0.0013563617
  Root  25         a              0.248314529 a.u.                6.7570 eV
     Dipole Oscillator Strength                    0.0000001131
  Root  26         a              0.251183319 a.u.                6.8350 eV
     Dipole Oscillator Strength                    0.0472907059
  Root  27         a              0.251973724 a.u.                6.8566 eV
     Dipole Oscillator Strength                    0.0100931434
  Root  28         a              0.252620505 a.u.                6.8742 eV
     Dipole Oscillator Strength                    0.0000038756
  Root  29         a              0.253986527 a.u.                6.9113 eV
     Dipole Oscillator Strength                    0.0000067349
  Root  30         a              0.254755067 a.u.                6.9322 eV
     Dipole Oscillator Strength                    0.3853280306
  Root  31         a              0.255404729 a.u.                6.9499 eV
     Dipole Oscillator Strength                    0.0692031324
  Root  32         a              0.260751084 a.u.                7.0954 eV
     Dipole Oscillator Strength                    0.0015903837
  Root  33         a              0.265400320 a.u.                7.2219 eV
     Dipole Oscillator Strength                    0.0000005781
  Root  34         a              0.267188413 a.u.                7.2706 eV
     Dipole Oscillator Strength                    0.2578047942
  Root  35         a              0.270807991 a.u.                7.3691 eV
     Dipole Oscillator Strength                    0.0000224385
  Root  36         a              0.271251533 a.u.                7.3811 eV
     Dipole Oscillator Strength                    0.0004304270
  Root  37         a              0.271753518 a.u.                7.3948 eV
     Dipole Oscillator Strength                    0.0473873505
  Root  38         a              0.271807127 a.u.                7.3963 eV
     Dipole Oscillator Strength                    0.0003987326
  Root  39         a              0.272285894 a.u.                7.4093 eV
     Dipole Oscillator Strength                    0.0000012789
  Root  40         a              0.272508554 a.u.                7.4153 eV
     Dipole Oscillator Strength                    0.0005160701
 Total times  cpu:     3988.8s     wall:     4118.1s
