============================== echo of input deck ==============================
echo
start

title "None"

geometry
C    -0.08732469    1.38596389    0.00000005
C    -1.26855440    0.69097268   -0.00000002
C    -1.16854673   -0.70459838   -0.00000002
C     0.08279583   -1.31408201    0.00000004
C     1.24774275   -0.55235618   -0.00000001
C     1.17179510    0.84473102    0.00000005
H    -2.23220345    1.18251666   -0.00000010
H    -2.06771288   -1.30741442   -0.00000009
H     0.15080403   -2.39346453    0.00000000
H     2.21546070   -1.03754606   -0.00000013
H     2.06612747    1.45333963   -0.00000010
symmetry c1
end

basis spherical
 * library "aug-cc-pvtz"
end

dft
 direct
 mult 2
 iterations 500
 xc b3lyp
end

tddft
 nroots 40
 notriplet
 algorithm 1
end
task tddft energy
================================================================================

 Output coordinates in angstroms (scale by  1.889725989 to convert to a.u.)

  No.       Tag          Charge          X              Y              Z
 ---- ---------------- ---------- -------------- -------------- --------------
    1 C                    6.0000    -0.08732281     1.38593420     0.00000005
    2 C                    6.0000    -1.26855252     0.69094299    -0.00000002
    3 C                    6.0000    -1.16854485    -0.70462807    -0.00000002
    4 C                    6.0000     0.08279771    -1.31411170     0.00000004
    5 C                    6.0000     1.24774463    -0.55238587    -0.00000001
    6 C                    6.0000     1.17179698     0.84470133     0.00000005
    7 H                    1.0000    -2.23220157     1.18248697    -0.00000010
    8 H                    1.0000    -2.06771100    -1.30744411    -0.00000009
    9 H                    1.0000     0.15080591    -2.39349422    -0.00000000
   10 H                    1.0000     2.21546258    -1.03757575    -0.00000013
   11 H                    1.0000     2.06612935     1.45330994    -0.00000010

         Total DFT energy =     -231.646316589818

                    DFT Final Alpha Molecular Orbital Analysis
                    ------------------------------------------

 Vector    1  Occ=1.000000D+00  E=-1.020505D+01

 Vector  305  Occ=0.000000D+00  E= 3.874937D+00

 Vector  306  Occ=0.000000D+00  E= 3.898841D+00

 Vector  307  Occ=0.000000D+00  E= 3.909796D+00

 Vector  308  Occ=0.000000D+00  E= 3.921677D+00

 Vector  309  Occ=0.000000D+00  E= 3.926094D+00

 Vector  310  Occ=0.000000D+00  E= 3.951941D+00

 Vector  311  Occ=0.000000D+00  E= 3.958792D+00

 Vector  312  Occ=0.000000D+00  E= 3.962692D+00

 Vector  313  Occ=0.000000D+00  E= 3.989580D+00

 Vector  314  Occ=0.000000D+00  E= 3.993822D+00

 Vector  315  Occ=0.000000D+00  E= 4.011113D+00

 Vector  316  Occ=0.000000D+00  E= 4.034348D+00

 Vector  317  Occ=0.000000D+00  E= 4.059917D+00

 Vector  318  Occ=0.000000D+00  E= 4.070714D+00

 Vector  319  Occ=0.000000D+00  E= 4.101726D+00

 Vector  320  Occ=0.000000D+00  E= 4.102879D+00

 Vector  321  Occ=0.000000D+00  E= 4.105027D+00

 Vector  322  Occ=0.000000D+00  E= 4.154994D+00

 Vector  323  Occ=0.000000D+00  E= 4.206911D+00

 Vector  324  Occ=0.000000D+00  E= 4.232171D+00

 Vector  325  Occ=0.000000D+00  E= 4.237320D+00

 Vector  326  Occ=0.000000D+00  E= 4.329164D+00

 Vector  327  Occ=0.000000D+00  E= 4.345187D+00

 Vector  328  Occ=0.000000D+00  E= 4.390547D+00

 Vector  329  Occ=0.000000D+00  E= 4.420743D+00

 Vector  330  Occ=0.000000D+00  E= 4.445410D+00

 Vector  331  Occ=0.000000D+00  E= 4.462594D+00

 Vector  332  Occ=0.000000D+00  E= 4.485803D+00

 Vector  333  Occ=0.000000D+00  E= 4.490357D+00

 Vector  334  Occ=0.000000D+00  E= 4.506756D+00

 Vector  335  Occ=0.000000D+00  E= 4.520083D+00

 Vector  336  Occ=0.000000D+00  E= 4.576303D+00

 Vector  337  Occ=0.000000D+00  E= 4.627531D+00

 Vector  338  Occ=0.000000D+00  E= 4.650245D+00

 Vector  339  Occ=0.000000D+00  E= 4.658845D+00

 Vector  340  Occ=0.000000D+00  E= 4.704705D+00

 Vector  341  Occ=0.000000D+00  E= 4.720690D+00

 Vector  342  Occ=0.000000D+00  E= 4.751247D+00

 Vector  343  Occ=0.000000D+00  E= 4.755673D+00

 Vector  344  Occ=0.000000D+00  E= 4.766424D+00

 Vector  345  Occ=0.000000D+00  E= 4.801654D+00

 Vector  346  Occ=0.000000D+00  E= 4.804704D+00

 Vector  347  Occ=0.000000D+00  E= 4.806580D+00

 Vector  348  Occ=0.000000D+00  E= 4.822288D+00

 Vector  349  Occ=0.000000D+00  E= 4.859475D+00

 Vector  350  Occ=0.000000D+00  E= 4.904943D+00

 Vector  351  Occ=0.000000D+00  E= 4.932994D+00

 Vector  352  Occ=0.000000D+00  E= 4.949248D+00

 Vector  353  Occ=0.000000D+00  E= 4.960174D+00

 Vector  354  Occ=0.000000D+00  E= 4.982557D+00

 Vector  355  Occ=0.000000D+00  E= 5.085162D+00

 Vector  356  Occ=0.000000D+00  E= 5.088619D+00

 Vector  357  Occ=0.000000D+00  E= 5.093972D+00

 Vector  358  Occ=0.000000D+00  E= 5.166513D+00

 Vector  359  Occ=0.000000D+00  E= 5.261170D+00

 Vector  360  Occ=0.000000D+00  E= 5.324247D+00

 Vector  361  Occ=0.000000D+00  E= 5.324394D+00

 Vector  362  Occ=0.000000D+00  E= 5.409144D+00

 Vector  363  Occ=0.000000D+00  E= 5.415743D+00

 Vector  364  Occ=0.000000D+00  E= 5.436768D+00

 Vector  365  Occ=0.000000D+00  E= 5.620509D+00

 Vector  366  Occ=0.000000D+00  E= 5.634289D+00

 Vector  367  Occ=0.000000D+00  E= 5.683153D+00

 Vector  368  Occ=0.000000D+00  E= 5.751089D+00

 Vector  369  Occ=0.000000D+00  E= 5.801663D+00

 Vector  370  Occ=0.000000D+00  E= 5.920713D+00

 Vector  371  Occ=0.000000D+00  E= 5.929064D+00

 Vector  372  Occ=0.000000D+00  E= 6.048989D+00

 Vector  373  Occ=0.000000D+00  E= 6.166637D+00

 Vector  374  Occ=0.000000D+00  E= 6.252766D+00

 Vector  375  Occ=0.000000D+00  E= 6.406397D+00

 Vector  376  Occ=0.000000D+00  E= 6.450549D+00

 Vector  377  Occ=0.000000D+00  E= 6.605025D+00

 Vector  378  Occ=0.000000D+00  E= 6.865536D+00

 Vector  379  Occ=0.000000D+00  E= 1.505329D+01

 Vector  380  Occ=0.000000D+00  E= 1.506797D+01

 Vector  381  Occ=0.000000D+00  E= 1.598058D+01

 Vector  382  Occ=0.000000D+00  E= 1.764643D+01

 Vector  383  Occ=0.000000D+00  E= 1.800121D+01

 Vector  384  Occ=0.000000D+00  E= 1.806282D+01

     Multipole analysis of the density
     ---------------------------------

     L   x y z        total         alpha         beta         nuclear
     -   - - -        -----         -----         ----         -------
     0   0 0 0     -0.000000    -21.000000    -20.000000     41.000000

     1   1 0 0      0.021195      0.106474     -0.085279     -0.000000
     1   0 1 0     -0.338870     -1.691124      1.352254      0.000000
     1   0 0 1     -0.000001     -0.000001     -0.000000      0.000000

     2   2 0 0    -22.654894   -108.694652   -106.701756    192.741514
     2   1 1 0      0.191543     -0.507154     -1.132544      1.831240
     2   1 0 1      0.000000     -0.000001     -0.000001      0.000002
     2   0 2 0    -25.682825   -100.677688    -88.798118    163.792981
     2   0 1 1     -0.000005     -0.000003     -0.000003      0.000001

  Root   1         a              0.106342640 a.u.                2.8937 eV
     Dipole Oscillator Strength                    0.0012066781
  Root   2         a              0.126528386 a.u.                3.4430 eV
     Dipole Oscillator Strength                    0.0000000000
  Root   3         a              0.143208063 a.u.                3.8969 eV
     Dipole Oscillator Strength                    0.0000123841
  Root   4         a              0.169816088 a.u.                4.6209 eV
     Dipole Oscillator Strength                    0.0000000000
  Root   5         a              0.171216252 a.u.                4.6590 eV
     Dipole Oscillator Strength                    0.0002563974
  Root   6         a              0.173438870 a.u.                4.7195 eV
     Dipole Oscillator Strength                    0.0037532016
  Root   7         a              0.177149161 a.u.                4.8205 eV
     Dipole Oscillator Strength                    0.0000138019
  Root   8         a              0.192046972 a.u.                5.2259 eV
     Dipole Oscillator Strength                    0.0006361080
  Root   9         a              0.201682252 a.u.                5.4881 eV
     Dipole Oscillator Strength                    0.0068154907
  Root  10         a              0.210508191 a.u.                5.7282 eV
     Dipole Oscillator Strength                    0.0076556251
  Root  11         a              0.216195581 a.u.                5.8830 eV
     Dipole Oscillator Strength                    0.0015368065
  Root  12         a              0.222897743 a.u.                6.0654 eV
     Dipole Oscillator Strength                    0.0002786601
  Root  13         a              0.224508886 a.u.                6.1092 eV
     Dipole Oscillator Strength                    0.0035349364
  Root  14         a              0.228044628 a.u.                6.2054 eV
     Dipole Oscillator Strength                    0.0092768253
  Root  15         a              0.228787786 a.u.                6.2256 eV
     Dipole Oscillator Strength                    0.0000000001
  Root  16         a              0.229474076 a.u.                6.2443 eV
     Dipole Oscillator Strength                    0.0009836990
  Root  17         a              0.230147324 a.u.                6.2626 eV
     Dipole Oscillator Strength                    0.0000000000
  Root  18         a              0.231762741 a.u.                6.3066 eV
     Dipole Oscillator Strength                    0.0222339402
  Root  19         a              0.235661229 a.u.                6.4127 eV
     Dipole Oscillator Strength                    0.0001503812
  Root  20         a              0.241567756 a.u.                6.5734 eV
     Dipole Oscillator Strength                    0.0000000001
  Root  21         a              0.242647238 a.u.                6.6028 eV
     Dipole Oscillator Strength                    0.0963813693
  Root  22         a              0.245338401 a.u.                6.6760 eV
     Dipole Oscillator Strength                    0.0032221260
  Root  23         a              0.246461954 a.u.                6.7066 eV
     Dipole Oscillator Strength                    0.0300303399
  Root  24         a              0.247339453 a.u.                6.7305 eV
     Dipole Oscillator Strength                    0.0034152010
  Root  25         a              0.248144125 a.u.                6.7523 eV
     Dipole Oscillator Strength                    0.0000000004
  Root  26         a              0.250744383 a.u.                6.8231 eV
     Dipole Oscillator Strength                    0.0332434722
  Root  27         a              0.251791286 a.u.                6.8516 eV
     Dipole Oscillator Strength                    0.0099236663
  Root  28         a              0.252793124 a.u.                6.8789 eV
     Dipole Oscillator Strength                    0.0000000005
  Root  29         a              0.254133038 a.u.                6.9153 eV
     Dipole Oscillator Strength                    0.0000000012
  Root  30         a              0.254773654 a.u.                6.9327 eV
     Dipole Oscillator Strength                    0.4013746941
  Root  31         a              0.254927726 a.u.                6.9369 eV
     Dipole Oscillator Strength                    0.0662586066
  Root  32         a              0.260236320 a.u.                7.0814 eV
     Dipole Oscillator Strength                    0.0015807680
  Root  33         a              0.265246388 a.u.                7.2177 eV
     Dipole Oscillator Strength                    0.0000000000
  Root  34         a              0.266937905 a.u.                7.2638 eV
     Dipole Oscillator Strength                    0.2486101448
  Root  35         a              0.270976649 a.u.                7.3737 eV
     Dipole Oscillator Strength                    0.0000167011
  Root  36         a              0.271247497 a.u.                7.3810 eV
     Dipole Oscillator Strength                    0.0003905081
  Root  37         a              0.271356217 a.u.                7.3840 eV
     Dipole Oscillator Strength                    0.0606464084
  Root  38         a              0.271956500 a.u.                7.4003 eV
     Dipole Oscillator Strength                    0.0001538587
  Root  39         a              0.272099003 a.u.                7.4042 eV
     Dipole Oscillator Strength                    0.0000000004
  Root  40         a              0.272353355 a.u.                7.4111 eV
     Dipole Oscillator Strength                    0.0002672452
 Total times  cpu:     2840.9s     wall:     2961.0s
