============================== echo of input deck ==============================
echo
start

title "None"

geometry
C    -0.08751135    1.38891475    0.00000005
C    -1.26798519    0.69034615   -0.00000002
C    -1.16686872   -0.70479760   -0.00000002
C     0.08289658   -1.31569508    0.00000004
C     1.24610373   -0.55276567   -0.00000001
C     1.17130945    0.84403816    0.00000005
H    -2.23085265    1.18348852   -0.00000010
H    -2.06833742   -1.30404518   -0.00000009
H     0.15090379   -2.39499667    0.00000000
H     2.21566032   -1.03412197   -0.00000013
H     2.06466638    1.45413394   -0.00000010
symmetry c1
end

basis spherical
 * library "aug-cc-pvtz"
end

dft
 direct
 mult 2
 iterations 500
 xc b3lyp
end

tddft
 nroots 40
 notriplet
 algorithm 1
end
task tddft energy
================================================================================

 Output coordinates in angstroms (scale by  1.889725989 to convert to a.u.)

  No.       Tag          Charge          X              Y              Z
 ---- ---------------- ---------- -------------- -------------- --------------
    1 C                    6.0000    -0.08750421     1.38880005     0.00000005
    2 C                    6.0000    -1.26797805     0.69023145    -0.00000002
    3 C                    6.0000    -1.16686158    -0.70491230    -0.00000002
    4 C                    6.0000     0.08290372    -1.31580978     0.00000004
    5 C                    6.0000     1.24611087    -0.55288037    -0.00000001
    6 C                    6.0000     1.17131659     0.84392346     0.00000005
    7 H                    1.0000    -2.23084551     1.18337382    -0.00000010
    8 H                    1.0000    -2.06833028    -1.30415988    -0.00000009
    9 H                    1.0000     0.15091093    -2.39511137    -0.00000000
   10 H                    1.0000     2.21566746    -1.03423667    -0.00000013
   11 H                    1.0000     2.06467352     1.45401924    -0.00000010

         Total DFT energy =     -231.646312646576

                    DFT Final Alpha Molecular Orbital Analysis
                    ------------------------------------------

 Vector    1  Occ=1.000000D+00  E=-1.020534D+01

 Vector  305  Occ=0.000000D+00  E= 3.875498D+00

 Vector  306  Occ=0.000000D+00  E= 3.899129D+00

 Vector  307  Occ=0.000000D+00  E= 3.909787D+00

 Vector  308  Occ=0.000000D+00  E= 3.922103D+00

 Vector  309  Occ=0.000000D+00  E= 3.925216D+00

 Vector  310  Occ=0.000000D+00  E= 3.952228D+00

 Vector  311  Occ=0.000000D+00  E= 3.957254D+00

 Vector  312  Occ=0.000000D+00  E= 3.962240D+00

 Vector  313  Occ=0.000000D+00  E= 3.989741D+00

 Vector  314  Occ=0.000000D+00  E= 3.995103D+00

 Vector  315  Occ=0.000000D+00  E= 4.011242D+00

 Vector  316  Occ=0.000000D+00  E= 4.032904D+00

 Vector  317  Occ=0.000000D+00  E= 4.059995D+00

 Vector  318  Occ=0.000000D+00  E= 4.070359D+00

 Vector  319  Occ=0.000000D+00  E= 4.102287D+00

 Vector  320  Occ=0.000000D+00  E= 4.103358D+00

 Vector  321  Occ=0.000000D+00  E= 4.106022D+00

 Vector  322  Occ=0.000000D+00  E= 4.155130D+00

 Vector  323  Occ=0.000000D+00  E= 4.205974D+00

 Vector  324  Occ=0.000000D+00  E= 4.232533D+00

 Vector  325  Occ=0.000000D+00  E= 4.236813D+00

 Vector  326  Occ=0.000000D+00  E= 4.330914D+00

 Vector  327  Occ=0.000000D+00  E= 4.346395D+00

 Vector  328  Occ=0.000000D+00  E= 4.391136D+00

 Vector  329  Occ=0.000000D+00  E= 4.419487D+00

 Vector  330  Occ=0.000000D+00  E= 4.444683D+00

 Vector  331  Occ=0.000000D+00  E= 4.460798D+00

 Vector  332  Occ=0.000000D+00  E= 4.486857D+00

 Vector  333  Occ=0.000000D+00  E= 4.491876D+00

 Vector  334  Occ=0.000000D+00  E= 4.504873D+00

 Vector  335  Occ=0.000000D+00  E= 4.520759D+00

 Vector  336  Occ=0.000000D+00  E= 4.576873D+00

 Vector  337  Occ=0.000000D+00  E= 4.626867D+00

 Vector  338  Occ=0.000000D+00  E= 4.651842D+00

 Vector  339  Occ=0.000000D+00  E= 4.658650D+00

 Vector  340  Occ=0.000000D+00  E= 4.704706D+00

 Vector  341  Occ=0.000000D+00  E= 4.720012D+00

 Vector  342  Occ=0.000000D+00  E= 4.750925D+00

 Vector  343  Occ=0.000000D+00  E= 4.753096D+00

 Vector  344  Occ=0.000000D+00  E= 4.766401D+00

 Vector  345  Occ=0.000000D+00  E= 4.803704D+00

 Vector  346  Occ=0.000000D+00  E= 4.806574D+00

 Vector  347  Occ=0.000000D+00  E= 4.807472D+00

 Vector  348  Occ=0.000000D+00  E= 4.822123D+00

 Vector  349  Occ=0.000000D+00  E= 4.857473D+00

 Vector  350  Occ=0.000000D+00  E= 4.903389D+00

 Vector  351  Occ=0.000000D+00  E= 4.934260D+00

 Vector  352  Occ=0.000000D+00  E= 4.949726D+00

 Vector  353  Occ=0.000000D+00  E= 4.958236D+00

 Vector  354  Occ=0.000000D+00  E= 4.982432D+00

 Vector  355  Occ=0.000000D+00  E= 5.086534D+00

 Vector  356  Occ=0.000000D+00  E= 5.088960D+00

 Vector  357  Occ=0.000000D+00  E= 5.092708D+00

 Vector  358  Occ=0.000000D+00  E= 5.167759D+00

 Vector  359  Occ=0.000000D+00  E= 5.260335D+00

 Vector  360  Occ=0.000000D+00  E= 5.323835D+00

 Vector  361  Occ=0.000000D+00  E= 5.324384D+00

 Vector  362  Occ=0.000000D+00  E= 5.410762D+00

 Vector  363  Occ=0.000000D+00  E= 5.415234D+00

 Vector  364  Occ=0.000000D+00  E= 5.437114D+00

 Vector  365  Occ=0.000000D+00  E= 5.620048D+00

 Vector  366  Occ=0.000000D+00  E= 5.635195D+00

 Vector  367  Occ=0.000000D+00  E= 5.683906D+00

 Vector  368  Occ=0.000000D+00  E= 5.748629D+00

 Vector  369  Occ=0.000000D+00  E= 5.802265D+00

 Vector  370  Occ=0.000000D+00  E= 5.918906D+00

 Vector  371  Occ=0.000000D+00  E= 5.929214D+00

 Vector  372  Occ=0.000000D+00  E= 6.049849D+00

 Vector  373  Occ=0.000000D+00  E= 6.165981D+00

 Vector  374  Occ=0.000000D+00  E= 6.253130D+00

 Vector  375  Occ=0.000000D+00  E= 6.407527D+00

 Vector  376  Occ=0.000000D+00  E= 6.448918D+00

 Vector  377  Occ=0.000000D+00  E= 6.605558D+00

 Vector  378  Occ=0.000000D+00  E= 6.866440D+00

 Vector  379  Occ=0.000000D+00  E= 1.503870D+01

 Vector  380  Occ=0.000000D+00  E= 1.507127D+01

 Vector  381  Occ=0.000000D+00  E= 1.597835D+01

 Vector  382  Occ=0.000000D+00  E= 1.765088D+01

 Vector  383  Occ=0.000000D+00  E= 1.800391D+01

 Vector  384  Occ=0.000000D+00  E= 1.806622D+01

     Multipole analysis of the density
     ---------------------------------

     L   x y z        total         alpha         beta         nuclear
     -   - - -        -----         -----         ----         -------
     0   0 0 0     -0.000000    -21.000000    -20.000000     41.000000

     1   1 0 0      0.021242      0.106760     -0.085519     -0.000000
     1   0 1 0     -0.338745     -1.695225      1.356480      0.000000
     1   0 0 1     -0.000001     -0.000001     -0.000000      0.000000

     2   2 0 0    -22.670054   -108.566334   -106.588835    192.485116
     2   1 1 0      0.190047     -0.490836     -1.119903      1.800785
     2   1 0 1      0.000000     -0.000001     -0.000001      0.000002
     2   0 2 0    -25.674413   -100.806905    -88.884828    164.017320
     2   0 1 1     -0.000005     -0.000004     -0.000003      0.000001

  Root   1         a              0.105906974 a.u.                2.8819 eV
     Dipole Oscillator Strength                    0.0012149635
  Root   2         a              0.126058519 a.u.                3.4302 eV
     Dipole Oscillator Strength                    0.0000000000
  Root   3         a              0.143256634 a.u.                3.8982 eV
     Dipole Oscillator Strength                    0.0000126081
  Root   4         a              0.170640562 a.u.                4.6434 eV
     Dipole Oscillator Strength                    0.0000000000
  Root   5         a              0.171422338 a.u.                4.6646 eV
     Dipole Oscillator Strength                    0.0002485358
  Root   6         a              0.173851472 a.u.                4.7307 eV
     Dipole Oscillator Strength                    0.0037818846
  Root   7         a              0.177118638 a.u.                4.8196 eV
     Dipole Oscillator Strength                    0.0000141013
  Root   8         a              0.191896275 a.u.                5.2218 eV
     Dipole Oscillator Strength                    0.0006831758
  Root   9         a              0.201751283 a.u.                5.4899 eV
     Dipole Oscillator Strength                    0.0064650840
  Root  10         a              0.211146497 a.u.                5.7456 eV
     Dipole Oscillator Strength                    0.0076683865
  Root  11         a              0.215136505 a.u.                5.8542 eV
     Dipole Oscillator Strength                    0.0015148400
  Root  12         a              0.222959591 a.u.                6.0670 eV
     Dipole Oscillator Strength                    0.0002635655
  Root  13         a              0.224559942 a.u.                6.1106 eV
     Dipole Oscillator Strength                    0.0036247600
  Root  14         a              0.228701894 a.u.                6.2233 eV
     Dipole Oscillator Strength                    0.0091247379
  Root  15         a              0.228713638 a.u.                6.2236 eV
     Dipole Oscillator Strength                    0.0000000178
  Root  16         a              0.229571225 a.u.                6.2470 eV
     Dipole Oscillator Strength                    0.0009457554
  Root  17         a              0.230073240 a.u.                6.2606 eV
     Dipole Oscillator Strength                    0.0000000001
  Root  18         a              0.232371500 a.u.                6.3232 eV
     Dipole Oscillator Strength                    0.0223364301
  Root  19         a              0.235339762 a.u.                6.4039 eV
     Dipole Oscillator Strength                    0.0001659739
  Root  20         a              0.241640192 a.u.                6.5754 eV
     Dipole Oscillator Strength                    0.0000000001
  Root  21         a              0.242591047 a.u.                6.6012 eV
     Dipole Oscillator Strength                    0.0957532364
  Root  22         a              0.245324537 a.u.                6.6756 eV
     Dipole Oscillator Strength                    0.0027562978
  Root  23         a              0.246443393 a.u.                6.7061 eV
     Dipole Oscillator Strength                    0.0314379650
  Root  24         a              0.247330933 a.u.                6.7302 eV
     Dipole Oscillator Strength                    0.0024596252
  Root  25         a              0.248245310 a.u.                6.7551 eV
     Dipole Oscillator Strength                    0.0000000002
  Root  26         a              0.251295787 a.u.                6.8381 eV
     Dipole Oscillator Strength                    0.0497423708
  Root  27         a              0.251891532 a.u.                6.8543 eV
     Dipole Oscillator Strength                    0.0100044940
  Root  28         a              0.252750099 a.u.                6.8777 eV
     Dipole Oscillator Strength                    0.0000000005
  Root  29         a              0.254090456 a.u.                6.9142 eV
     Dipole Oscillator Strength                    0.0000000003
  Root  30         a              0.254811540 a.u.                6.9338 eV
     Dipole Oscillator Strength                    0.3837476286
  Root  31         a              0.255523123 a.u.                6.9531 eV
     Dipole Oscillator Strength                    0.0697698416
  Root  32         a              0.260876299 a.u.                7.0988 eV
     Dipole Oscillator Strength                    0.0016036599
  Root  33         a              0.265322250 a.u.                7.2198 eV
     Dipole Oscillator Strength                    0.0000000000
  Root  34         a              0.267205380 a.u.                7.2710 eV
     Dipole Oscillator Strength                    0.2599479343
  Root  35         a              0.270933910 a.u.                7.3725 eV
     Dipole Oscillator Strength                    0.0000162957
  Root  36         a              0.271331150 a.u.                7.3833 eV
     Dipole Oscillator Strength                    0.0004149485
  Root  37         a              0.271789337 a.u.                7.3958 eV
     Dipole Oscillator Strength                    0.0420358349
  Root  38         a              0.271916514 a.u.                7.3992 eV
     Dipole Oscillator Strength                    0.0001313768
  Root  39         a              0.272208317 a.u.                7.4072 eV
     Dipole Oscillator Strength                    0.0000000002
  Root  40         a              0.272403650 a.u.                7.4125 eV
     Dipole Oscillator Strength                    0.0002849073
 Total times  cpu:     2913.4s     wall:     3006.3s
