============================== echo of input deck ==============================
echo
start

title "None"

geometry
C    -0.08828409    1.38825271    0.00000005
C    -1.26867079    0.69227820   -0.00000002
C    -1.16613422   -0.70340355   -0.00000002
C     0.08375399   -1.31593617    0.00000004
C     1.24791245   -0.55376135   -0.00000001
C     1.16942624    0.84341398    0.00000005
H    -2.23367844    1.18108169   -0.00000010
H    -2.06579254   -1.30549356   -0.00000009
H     0.14973162   -2.39544931    0.00000000
H     2.21680761   -1.03653584   -0.00000013
H     2.06426882    1.45129362   -0.00000010
symmetry c1
end

basis spherical
 * library "aug-cc-pvtz"
end

dft
 direct
 mult 2
 iterations 500
 xc b3lyp
end

tddft
 nroots 40
 notriplet
 algorithm 1
end
task tddft energy
================================================================================

 Output coordinates in angstroms (scale by  1.889725989 to convert to a.u.)

  No.       Tag          Charge          X              Y              Z
 ---- ---------------- ---------- -------------- -------------- --------------
    1 C                    6.0000    -0.08826844     1.38825370     0.00000005
    2 C                    6.0000    -1.26865514     0.69227919    -0.00000002
    3 C                    6.0000    -1.16611857    -0.70340256    -0.00000002
    4 C                    6.0000     0.08376964    -1.31593518     0.00000004
    5 C                    6.0000     1.24792810    -0.55376036    -0.00000001
    6 C                    6.0000     1.16944189     0.84341497     0.00000005
    7 H                    1.0000    -2.23366279     1.18108268    -0.00000010
    8 H                    1.0000    -2.06577689    -1.30549257    -0.00000009
    9 H                    1.0000     0.14974727    -2.39544832    -0.00000000
   10 H                    1.0000     2.21682326    -1.03653485    -0.00000013
   11 H                    1.0000     2.06428447     1.45129461    -0.00000010

         Total DFT energy =     -231.646317823656

                    DFT Final Alpha Molecular Orbital Analysis
                    ------------------------------------------

 Vector    1  Occ=1.000000D+00  E=-1.020519D+01

 Vector  305  Occ=0.000000D+00  E= 3.874522D+00

 Vector  306  Occ=0.000000D+00  E= 3.900089D+00

 Vector  307  Occ=0.000000D+00  E= 3.910030D+00

 Vector  308  Occ=0.000000D+00  E= 3.921935D+00

 Vector  309  Occ=0.000000D+00  E= 3.926226D+00

 Vector  310  Occ=0.000000D+00  E= 3.952343D+00

 Vector  311  Occ=0.000000D+00  E= 3.958716D+00

 Vector  312  Occ=0.000000D+00  E= 3.962762D+00

 Vector  313  Occ=0.000000D+00  E= 3.989412D+00

 Vector  314  Occ=0.000000D+00  E= 3.994113D+00

 Vector  315  Occ=0.000000D+00  E= 4.010667D+00

 Vector  316  Occ=0.000000D+00  E= 4.032984D+00

 Vector  317  Occ=0.000000D+00  E= 4.060701D+00

 Vector  318  Occ=0.000000D+00  E= 4.069948D+00

 Vector  319  Occ=0.000000D+00  E= 4.102763D+00

 Vector  320  Occ=0.000000D+00  E= 4.103626D+00

 Vector  321  Occ=0.000000D+00  E= 4.105868D+00

 Vector  322  Occ=0.000000D+00  E= 4.153999D+00

 Vector  323  Occ=0.000000D+00  E= 4.206774D+00

 Vector  324  Occ=0.000000D+00  E= 4.230571D+00

 Vector  325  Occ=0.000000D+00  E= 4.236958D+00

 Vector  326  Occ=0.000000D+00  E= 4.330769D+00

 Vector  327  Occ=0.000000D+00  E= 4.345419D+00

 Vector  328  Occ=0.000000D+00  E= 4.390469D+00

 Vector  329  Occ=0.000000D+00  E= 4.420620D+00

 Vector  330  Occ=0.000000D+00  E= 4.444563D+00

 Vector  331  Occ=0.000000D+00  E= 4.462539D+00

 Vector  332  Occ=0.000000D+00  E= 4.485935D+00

 Vector  333  Occ=0.000000D+00  E= 4.490574D+00

 Vector  334  Occ=0.000000D+00  E= 4.506263D+00

 Vector  335  Occ=0.000000D+00  E= 4.520555D+00

 Vector  336  Occ=0.000000D+00  E= 4.575881D+00

 Vector  337  Occ=0.000000D+00  E= 4.627099D+00

 Vector  338  Occ=0.000000D+00  E= 4.651221D+00

 Vector  339  Occ=0.000000D+00  E= 4.658390D+00

 Vector  340  Occ=0.000000D+00  E= 4.705153D+00

 Vector  341  Occ=0.000000D+00  E= 4.720327D+00

 Vector  342  Occ=0.000000D+00  E= 4.750725D+00

 Vector  343  Occ=0.000000D+00  E= 4.754482D+00

 Vector  344  Occ=0.000000D+00  E= 4.767716D+00

 Vector  345  Occ=0.000000D+00  E= 4.802297D+00

 Vector  346  Occ=0.000000D+00  E= 4.804981D+00

 Vector  347  Occ=0.000000D+00  E= 4.807623D+00

 Vector  348  Occ=0.000000D+00  E= 4.822878D+00

 Vector  349  Occ=0.000000D+00  E= 4.857706D+00

 Vector  350  Occ=0.000000D+00  E= 4.903517D+00

 Vector  351  Occ=0.000000D+00  E= 4.933819D+00

 Vector  352  Occ=0.000000D+00  E= 4.949589D+00

 Vector  353  Occ=0.000000D+00  E= 4.959846D+00

 Vector  354  Occ=0.000000D+00  E= 4.982602D+00

 Vector  355  Occ=0.000000D+00  E= 5.085669D+00

 Vector  356  Occ=0.000000D+00  E= 5.088885D+00

 Vector  357  Occ=0.000000D+00  E= 5.093035D+00

 Vector  358  Occ=0.000000D+00  E= 5.166982D+00

 Vector  359  Occ=0.000000D+00  E= 5.260262D+00

 Vector  360  Occ=0.000000D+00  E= 5.322850D+00

 Vector  361  Occ=0.000000D+00  E= 5.324029D+00

 Vector  362  Occ=0.000000D+00  E= 5.410720D+00

 Vector  363  Occ=0.000000D+00  E= 5.415702D+00

 Vector  364  Occ=0.000000D+00  E= 5.436333D+00

 Vector  365  Occ=0.000000D+00  E= 5.620367D+00

 Vector  366  Occ=0.000000D+00  E= 5.635078D+00

 Vector  367  Occ=0.000000D+00  E= 5.682412D+00

 Vector  368  Occ=0.000000D+00  E= 5.748855D+00

 Vector  369  Occ=0.000000D+00  E= 5.802710D+00

 Vector  370  Occ=0.000000D+00  E= 5.918611D+00

 Vector  371  Occ=0.000000D+00  E= 5.931200D+00

 Vector  372  Occ=0.000000D+00  E= 6.047805D+00

 Vector  373  Occ=0.000000D+00  E= 6.165631D+00

 Vector  374  Occ=0.000000D+00  E= 6.253095D+00

 Vector  375  Occ=0.000000D+00  E= 6.406648D+00

 Vector  376  Occ=0.000000D+00  E= 6.449931D+00

 Vector  377  Occ=0.000000D+00  E= 6.604527D+00

 Vector  378  Occ=0.000000D+00  E= 6.864761D+00

 Vector  379  Occ=0.000000D+00  E= 1.504819D+01

 Vector  380  Occ=0.000000D+00  E= 1.506716D+01

 Vector  381  Occ=0.000000D+00  E= 1.597865D+01

 Vector  382  Occ=0.000000D+00  E= 1.764781D+01

 Vector  383  Occ=0.000000D+00  E= 1.800484D+01

 Vector  384  Occ=0.000000D+00  E= 1.806319D+01

     Multipole analysis of the density
     ---------------------------------

     L   x y z        total         alpha         beta         nuclear
     -   - - -        -----         -----         ----         -------
     0   0 0 0     -0.000000    -21.000000    -20.000000     41.000000

     1   1 0 0      0.020201      0.106641     -0.086441      0.000000
     1   0 1 0     -0.340243     -1.694282      1.354039      0.000000
     1   0 0 1     -0.000001     -0.000001     -0.000000      0.000000

     2   2 0 0    -22.663945   -108.582254   -106.594050    192.512360
     2   1 1 0      0.176359     -0.358640     -0.982638      1.517636
     2   1 0 1      0.000000     -0.000001     -0.000001      0.000002
     2   0 2 0    -25.678703   -100.792951    -88.882783    163.997031
     2   0 1 1     -0.000005     -0.000003     -0.000003      0.000001

  Root   1         a              0.106130588 a.u.                2.8880 eV
     Dipole Oscillator Strength                    0.0012090841
  Root   2         a              0.126003703 a.u.                3.4287 eV
     Dipole Oscillator Strength                    0.0000000868
  Root   3         a              0.143183014 a.u.                3.8962 eV
     Dipole Oscillator Strength                    0.0000123548
  Root   4         a              0.170296449 a.u.                4.6340 eV
     Dipole Oscillator Strength                    0.0000010845
  Root   5         a              0.171388211 a.u.                4.6637 eV
     Dipole Oscillator Strength                    0.0002473576
  Root   6         a              0.173813719 a.u.                4.7297 eV
     Dipole Oscillator Strength                    0.0037699756
  Root   7         a              0.177176280 a.u.                4.8212 eV
     Dipole Oscillator Strength                    0.0000140402
  Root   8         a              0.191911103 a.u.                5.2222 eV
     Dipole Oscillator Strength                    0.0006748143
  Root   9         a              0.201733942 a.u.                5.4895 eV
     Dipole Oscillator Strength                    0.0064550941
  Root  10         a              0.210939412 a.u.                5.7400 eV
     Dipole Oscillator Strength                    0.0075781800
  Root  11         a              0.215595106 a.u.                5.8666 eV
     Dipole Oscillator Strength                    0.0015023000
  Root  12         a              0.223056338 a.u.                6.0697 eV
     Dipole Oscillator Strength                    0.0002783939
  Root  13         a              0.224530275 a.u.                6.1098 eV
     Dipole Oscillator Strength                    0.0040461999
  Root  14         a              0.228485402 a.u.                6.2174 eV
     Dipole Oscillator Strength                    0.0092159708
  Root  15         a              0.228613651 a.u.                6.2209 eV
     Dipole Oscillator Strength                    0.0000171103
  Root  16         a              0.229637997 a.u.                6.2488 eV
     Dipole Oscillator Strength                    0.0009085403
  Root  17         a              0.230010919 a.u.                6.2589 eV
     Dipole Oscillator Strength                    0.0000646217
  Root  18         a              0.232163912 a.u.                6.3175 eV
     Dipole Oscillator Strength                    0.0225133291
  Root  19         a              0.235316837 a.u.                6.4033 eV
     Dipole Oscillator Strength                    0.0001724538
  Root  20         a              0.241735213 a.u.                6.5780 eV
     Dipole Oscillator Strength                    0.0000140819
  Root  21         a              0.242552023 a.u.                6.6002 eV
     Dipole Oscillator Strength                    0.0947819604
  Root  22         a              0.245298480 a.u.                6.6749 eV
     Dipole Oscillator Strength                    0.0019458232
  Root  23         a              0.246398792 a.u.                6.7049 eV
     Dipole Oscillator Strength                    0.0331630936
  Root  24         a              0.247302673 a.u.                6.7295 eV
     Dipole Oscillator Strength                    0.0012843802
  Root  25         a              0.248319041 a.u.                6.7571 eV
     Dipole Oscillator Strength                    0.0001043661
  Root  26         a              0.251109993 a.u.                6.8331 eV
     Dipole Oscillator Strength                    0.0455601337
  Root  27         a              0.251933868 a.u.                6.8555 eV
     Dipole Oscillator Strength                    0.0096573540
  Root  28         a              0.252699926 a.u.                6.8763 eV
     Dipole Oscillator Strength                    0.0004010476
  Root  29         a              0.253990519 a.u.                6.9114 eV
     Dipole Oscillator Strength                    0.0000053910
  Root  30         a              0.254728974 a.u.                6.9315 eV
     Dipole Oscillator Strength                    0.3865726218
  Root  31         a              0.255324669 a.u.                6.9477 eV
     Dipole Oscillator Strength                    0.0691763715
  Root  32         a              0.260671689 a.u.                7.0932 eV
     Dipole Oscillator Strength                    0.0015916297
  Root  33         a              0.265420076 a.u.                7.2225 eV
     Dipole Oscillator Strength                    0.0000000220
  Root  34         a              0.267151066 a.u.                7.2696 eV
     Dipole Oscillator Strength                    0.2568850765
  Root  35         a              0.270832055 a.u.                7.3697 eV
     Dipole Oscillator Strength                    0.0000160812
  Root  36         a              0.271244330 a.u.                7.3809 eV
     Dipole Oscillator Strength                    0.0004258541
  Root  37         a              0.271694821 a.u.                7.3932 eV
     Dipole Oscillator Strength                    0.0509137740
  Root  38         a              0.271810467 a.u.                7.3963 eV
     Dipole Oscillator Strength                    0.0001063016
  Root  39         a              0.272309557 a.u.                7.4099 eV
     Dipole Oscillator Strength                    0.0000123918
  Root  40         a              0.272522508 a.u.                7.4157 eV
     Dipole Oscillator Strength                    0.0003074174
 Total times  cpu:     2871.0s     wall:     2976.5s
