============================== echo of input deck ==============================
echo
start

title "None"

geometry
C    -0.08939255    1.38818311    0.00000005
C    -1.26619211    0.69176935   -0.00000002
C    -1.16845766   -0.70431267   -0.00000002
C     0.08485133   -1.31586710    0.00000004
C     1.24549329   -0.55315124   -0.00000001
C     1.17182115    0.84423004    0.00000005
H    -2.23180126    1.17937359   -0.00000010
H    -2.06754736   -1.30738486   -0.00000009
H     0.14851160   -2.39552619    0.00000000
H     2.21482967   -1.03487864   -0.00000013
H     2.06591656    1.45322387   -0.00000010
symmetry c1
end

basis spherical
 * library "aug-cc-pvtz"
end

dft
 direct
 mult 2
 iterations 500
 xc b3lyp
end

tddft
 nroots 40
 notriplet
 algorithm 1
end
task tddft energy
================================================================================

 Output coordinates in angstroms (scale by  1.889725989 to convert to a.u.)

  No.       Tag          Charge          X              Y              Z
 ---- ---------------- ---------- -------------- -------------- --------------
    1 C                    6.0000    -0.08935962     1.38818514     0.00000005
    2 C                    6.0000    -1.26615918     0.69177138    -0.00000002
    3 C                    6.0000    -1.16842473    -0.70431064    -0.00000002
    4 C                    6.0000     0.08488426    -1.31586507     0.00000004
    5 C                    6.0000     1.24552622    -0.55314921    -0.00000001
    6 C                    6.0000     1.17185408     0.84423207     0.00000005
    7 H                    1.0000    -2.23176833     1.17937562    -0.00000010
    8 H                    1.0000    -2.06751443    -1.30738283    -0.00000009
    9 H                    1.0000     0.14854453    -2.39552416    -0.00000000
   10 H                    1.0000     2.21486260    -1.03487661    -0.00000013
   11 H                    1.0000     2.06594949     1.45322590    -0.00000010

         Total DFT energy =     -231.646295143704

                    DFT Final Alpha Molecular Orbital Analysis
                    ------------------------------------------

 Vector    1  Occ=1.000000D+00  E=-1.020524D+01

 Vector  305  Occ=0.000000D+00  E= 3.874577D+00

 Vector  306  Occ=0.000000D+00  E= 3.899964D+00

 Vector  307  Occ=0.000000D+00  E= 3.910062D+00

 Vector  308  Occ=0.000000D+00  E= 3.921987D+00

 Vector  309  Occ=0.000000D+00  E= 3.926349D+00

 Vector  310  Occ=0.000000D+00  E= 3.952384D+00

 Vector  311  Occ=0.000000D+00  E= 3.958746D+00

 Vector  312  Occ=0.000000D+00  E= 3.962781D+00

 Vector  313  Occ=0.000000D+00  E= 3.989476D+00

 Vector  314  Occ=0.000000D+00  E= 3.994125D+00

 Vector  315  Occ=0.000000D+00  E= 4.010684D+00

 Vector  316  Occ=0.000000D+00  E= 4.033069D+00

 Vector  317  Occ=0.000000D+00  E= 4.060766D+00

 Vector  318  Occ=0.000000D+00  E= 4.069963D+00

 Vector  319  Occ=0.000000D+00  E= 4.101743D+00

 Vector  320  Occ=0.000000D+00  E= 4.104633D+00

 Vector  321  Occ=0.000000D+00  E= 4.105853D+00

 Vector  322  Occ=0.000000D+00  E= 4.154037D+00

 Vector  323  Occ=0.000000D+00  E= 4.206749D+00

 Vector  324  Occ=0.000000D+00  E= 4.230478D+00

 Vector  325  Occ=0.000000D+00  E= 4.237014D+00

 Vector  326  Occ=0.000000D+00  E= 4.330877D+00

 Vector  327  Occ=0.000000D+00  E= 4.345407D+00

 Vector  328  Occ=0.000000D+00  E= 4.390551D+00

 Vector  329  Occ=0.000000D+00  E= 4.420538D+00

 Vector  330  Occ=0.000000D+00  E= 4.444606D+00

 Vector  331  Occ=0.000000D+00  E= 4.462575D+00

 Vector  332  Occ=0.000000D+00  E= 4.484768D+00

 Vector  333  Occ=0.000000D+00  E= 4.491735D+00

 Vector  334  Occ=0.000000D+00  E= 4.506376D+00

 Vector  335  Occ=0.000000D+00  E= 4.520588D+00

 Vector  336  Occ=0.000000D+00  E= 4.576069D+00

 Vector  337  Occ=0.000000D+00  E= 4.627151D+00

 Vector  338  Occ=0.000000D+00  E= 4.651184D+00

 Vector  339  Occ=0.000000D+00  E= 4.658330D+00

 Vector  340  Occ=0.000000D+00  E= 4.705030D+00

 Vector  341  Occ=0.000000D+00  E= 4.720322D+00

 Vector  342  Occ=0.000000D+00  E= 4.750774D+00

 Vector  343  Occ=0.000000D+00  E= 4.754720D+00

 Vector  344  Occ=0.000000D+00  E= 4.767600D+00

 Vector  345  Occ=0.000000D+00  E= 4.802335D+00

 Vector  346  Occ=0.000000D+00  E= 4.805078D+00

 Vector  347  Occ=0.000000D+00  E= 4.807838D+00

 Vector  348  Occ=0.000000D+00  E= 4.822864D+00

 Vector  349  Occ=0.000000D+00  E= 4.857726D+00

 Vector  350  Occ=0.000000D+00  E= 4.903526D+00

 Vector  351  Occ=0.000000D+00  E= 4.933898D+00

 Vector  352  Occ=0.000000D+00  E= 4.949177D+00

 Vector  353  Occ=0.000000D+00  E= 4.960248D+00

 Vector  354  Occ=0.000000D+00  E= 4.982694D+00

 Vector  355  Occ=0.000000D+00  E= 5.084966D+00

 Vector  356  Occ=0.000000D+00  E= 5.089621D+00

 Vector  357  Occ=0.000000D+00  E= 5.093076D+00

 Vector  358  Occ=0.000000D+00  E= 5.167023D+00

 Vector  359  Occ=0.000000D+00  E= 5.260271D+00

 Vector  360  Occ=0.000000D+00  E= 5.322833D+00

 Vector  361  Occ=0.000000D+00  E= 5.324097D+00

 Vector  362  Occ=0.000000D+00  E= 5.410636D+00

 Vector  363  Occ=0.000000D+00  E= 5.415897D+00

 Vector  364  Occ=0.000000D+00  E= 5.436348D+00

 Vector  365  Occ=0.000000D+00  E= 5.620435D+00

 Vector  366  Occ=0.000000D+00  E= 5.635028D+00

 Vector  367  Occ=0.000000D+00  E= 5.682405D+00

 Vector  368  Occ=0.000000D+00  E= 5.749063D+00

 Vector  369  Occ=0.000000D+00  E= 5.802476D+00

 Vector  370  Occ=0.000000D+00  E= 5.919780D+00

 Vector  371  Occ=0.000000D+00  E= 5.930068D+00

 Vector  372  Occ=0.000000D+00  E= 6.047923D+00

 Vector  373  Occ=0.000000D+00  E= 6.165695D+00

 Vector  374  Occ=0.000000D+00  E= 6.253127D+00

 Vector  375  Occ=0.000000D+00  E= 6.406624D+00

 Vector  376  Occ=0.000000D+00  E= 6.449886D+00

 Vector  377  Occ=0.000000D+00  E= 6.604619D+00

 Vector  378  Occ=0.000000D+00  E= 6.864776D+00

 Vector  379  Occ=0.000000D+00  E= 1.502495D+01

 Vector  380  Occ=0.000000D+00  E= 1.509197D+01

 Vector  381  Occ=0.000000D+00  E= 1.597880D+01

 Vector  382  Occ=0.000000D+00  E= 1.764765D+01

 Vector  383  Occ=0.000000D+00  E= 1.800485D+01

 Vector  384  Occ=0.000000D+00  E= 1.806363D+01

     Multipole analysis of the density
     ---------------------------------

     L   x y z        total         alpha         beta         nuclear
     -   - - -        -----         -----         ----         -------
     0   0 0 0     -0.000000    -21.000000    -20.000000     41.000000

     1   1 0 0      0.020587      0.111142     -0.090555      0.000000
     1   0 1 0     -0.340554     -1.694286      1.353732      0.000000
     1   0 0 1     -0.000001     -0.000001     -0.000000      0.000000

     2   2 0 0    -22.670109   -108.569300   -106.581517    192.480708
     2   1 1 0      0.205038     -0.457290     -1.106039      1.768367
     2   1 0 1      0.000000     -0.000001     -0.000001      0.000002
     2   0 2 0    -25.674938   -100.806197    -88.897433    164.028693
     2   0 1 1     -0.000005     -0.000003     -0.000003      0.000001

  Root   1         a              0.106285983 a.u.                2.8922 eV
     Dipole Oscillator Strength                    0.0012104204
  Root   2         a              0.126080056 a.u.                3.4308 eV
     Dipole Oscillator Strength                    0.0000007207
  Root   3         a              0.143172864 a.u.                3.8959 eV
     Dipole Oscillator Strength                    0.0000121651
  Root   4         a              0.170268916 a.u.                4.6333 eV
     Dipole Oscillator Strength                    0.0001114517
  Root   5         a              0.171455984 a.u.                4.6656 eV
     Dipole Oscillator Strength                    0.0002501822
  Root   6         a              0.174059519 a.u.                4.7364 eV
     Dipole Oscillator Strength                    0.0036443329
  Root   7         a              0.177216327 a.u.                4.8223 eV
     Dipole Oscillator Strength                    0.0000132665
  Root   8         a              0.191921596 a.u.                5.2225 eV
     Dipole Oscillator Strength                    0.0006892686
  Root   9         a              0.201776193 a.u.                5.4906 eV
     Dipole Oscillator Strength                    0.0064863506
  Root  10         a              0.211019728 a.u.                5.7421 eV
     Dipole Oscillator Strength                    0.0075541977
  Root  11         a              0.215648286 a.u.                5.8681 eV
     Dipole Oscillator Strength                    0.0015176217
  Root  12         a              0.222990959 a.u.                6.0679 eV
     Dipole Oscillator Strength                    0.0002748303
  Root  13         a              0.224521483 a.u.                6.1095 eV
     Dipole Oscillator Strength                    0.0045667495
  Root  14         a              0.228422795 a.u.                6.2157 eV
     Dipole Oscillator Strength                    0.0001540085
  Root  15         a              0.228564612 a.u.                6.2196 eV
     Dipole Oscillator Strength                    0.0092686647
  Root  16         a              0.229631849 a.u.                6.2486 eV
     Dipole Oscillator Strength                    0.0004919027
  Root  17         a              0.230229998 a.u.                6.2649 eV
     Dipole Oscillator Strength                    0.0003525418
  Root  18         a              0.232238488 a.u.                6.3195 eV
     Dipole Oscillator Strength                    0.0225906008
  Root  19         a              0.235382812 a.u.                6.4051 eV
     Dipole Oscillator Strength                    0.0001674701
  Root  20         a              0.241654010 a.u.                6.5757 eV
     Dipole Oscillator Strength                    0.0002074541
  Root  21         a              0.242613080 a.u.                6.6018 eV
     Dipole Oscillator Strength                    0.0952394754
  Root  22         a              0.245257528 a.u.                6.6738 eV
     Dipole Oscillator Strength                    0.0009559482
  Root  23         a              0.246280303 a.u.                6.7016 eV
     Dipole Oscillator Strength                    0.0326800533
  Root  24         a              0.247302053 a.u.                6.7294 eV
     Dipole Oscillator Strength                    0.0014355913
  Root  25         a              0.248446140 a.u.                6.7606 eV
     Dipole Oscillator Strength                    0.0010848784
  Root  26         a              0.251184917 a.u.                6.8351 eV
     Dipole Oscillator Strength                    0.0462051484
  Root  27         a              0.251660657 a.u.                6.8480 eV
     Dipole Oscillator Strength                    0.0078800754
  Root  28         a              0.252938617 a.u.                6.8828 eV
     Dipole Oscillator Strength                    0.0022540918
  Root  29         a              0.254031932 a.u.                6.9126 eV
     Dipole Oscillator Strength                    0.0000825224
  Root  30         a              0.254779259 a.u.                6.9329 eV
     Dipole Oscillator Strength                    0.3858129128
  Root  31         a              0.255400272 a.u.                6.9498 eV
     Dipole Oscillator Strength                    0.0691050957
  Root  32         a              0.260746346 a.u.                7.0953 eV
     Dipole Oscillator Strength                    0.0015867183
  Root  33         a              0.265349662 a.u.                7.2205 eV
     Dipole Oscillator Strength                    0.0000003367
  Root  34         a              0.267183475 a.u.                7.2704 eV
     Dipole Oscillator Strength                    0.2575376456
  Root  35         a              0.270689865 a.u.                7.3658 eV
     Dipole Oscillator Strength                    0.0000244177
  Root  36         a              0.271208290 a.u.                7.3800 eV
     Dipole Oscillator Strength                    0.0004484645
  Root  37         a              0.271713872 a.u.                7.3937 eV
     Dipole Oscillator Strength                    0.0000730581
  Root  38         a              0.271739966 a.u.                7.3944 eV
     Dipole Oscillator Strength                    0.0467500423
  Root  39         a              0.272441771 a.u.                7.4135 eV
     Dipole Oscillator Strength                    0.0003301742
  Root  40         a              0.272579003 a.u.                7.4173 eV
     Dipole Oscillator Strength                    0.0000093756
 Total times  cpu:     2665.3s     wall:     2773.3s
