============================== echo of input deck ==============================
echo
start

title "None"

geometry
C    -0.08752094    1.38907619    0.00000005
C    -1.26831528    0.69190746   -0.00000002
C    -1.16850554   -0.70527771   -0.00000002
C     0.08302289   -1.31768804    0.00000004
C     1.24778778   -0.55303600   -0.00000001
C     1.17144045    0.84562858    0.00000005
H    -2.23236245    1.18285584   -0.00000010
H    -2.06929109   -1.30586415   -0.00000009
H     0.15103835   -2.39720277   -0.00000000
H     2.21683236   -1.03581066   -0.00000013
H     2.06624185    1.45369740   -0.00000010
symmetry c1
end

basis spherical
 * library "aug-cc-pvtz"
end

dft
 direct
 mult 2
 iterations 500
 xc b3lyp
end

tddft
 nroots 40
 notriplet
 algorithm 1
end
task tddft energy
================================================================================

 Output coordinates in angstroms (scale by  1.889725989 to convert to a.u.)

  No.       Tag          Charge          X              Y              Z
 ---- ---------------- ---------- -------------- -------------- --------------
    1 C                    6.0000    -0.08751887     1.38904354     0.00000005
    2 C                    6.0000    -1.26831321     0.69187481    -0.00000002
    3 C                    6.0000    -1.16850347    -0.70531036    -0.00000002
    4 C                    6.0000     0.08302496    -1.31772069     0.00000004
    5 C                    6.0000     1.24778985    -0.55306865    -0.00000001
    6 C                    6.0000     1.17144252     0.84559593     0.00000005
    7 H                    1.0000    -2.23236038     1.18282319    -0.00000010
    8 H                    1.0000    -2.06928902    -1.30589680    -0.00000009
    9 H                    1.0000     0.15104042    -2.39723542    -0.00000000
   10 H                    1.0000     2.21683443    -1.03584331    -0.00000013
   11 H                    1.0000     2.06624392     1.45366475    -0.00000010

         Total DFT energy =     -231.646316899668

                    DFT Final Alpha Molecular Orbital Analysis
                    ------------------------------------------

 Vector    1  Occ=1.000000D+00  E=-1.020542D+01

 Vector  305  Occ=0.000000D+00  E= 3.873859D+00

 Vector  306  Occ=0.000000D+00  E= 3.899300D+00

 Vector  307  Occ=0.000000D+00  E= 3.909044D+00

 Vector  308  Occ=0.000000D+00  E= 3.920118D+00

 Vector  309  Occ=0.000000D+00  E= 3.923997D+00

 Vector  310  Occ=0.000000D+00  E= 3.949923D+00

 Vector  311  Occ=0.000000D+00  E= 3.958083D+00

 Vector  312  Occ=0.000000D+00  E= 3.960993D+00

 Vector  313  Occ=0.000000D+00  E= 3.987867D+00

 Vector  314  Occ=0.000000D+00  E= 3.994500D+00

 Vector  315  Occ=0.000000D+00  E= 4.009131D+00

 Vector  316  Occ=0.000000D+00  E= 4.031948D+00

 Vector  317  Occ=0.000000D+00  E= 4.058903D+00

 Vector  318  Occ=0.000000D+00  E= 4.068651D+00

 Vector  319  Occ=0.000000D+00  E= 4.100915D+00

 Vector  320  Occ=0.000000D+00  E= 4.101575D+00

 Vector  321  Occ=0.000000D+00  E= 4.104663D+00

 Vector  322  Occ=0.000000D+00  E= 4.152985D+00

 Vector  323  Occ=0.000000D+00  E= 4.205642D+00

 Vector  324  Occ=0.000000D+00  E= 4.230102D+00

 Vector  325  Occ=0.000000D+00  E= 4.236213D+00

 Vector  326  Occ=0.000000D+00  E= 4.329281D+00

 Vector  327  Occ=0.000000D+00  E= 4.342898D+00

 Vector  328  Occ=0.000000D+00  E= 4.388273D+00

 Vector  329  Occ=0.000000D+00  E= 4.418937D+00

 Vector  330  Occ=0.000000D+00  E= 4.443169D+00

 Vector  331  Occ=0.000000D+00  E= 4.461404D+00

 Vector  332  Occ=0.000000D+00  E= 4.482956D+00

 Vector  333  Occ=0.000000D+00  E= 4.487979D+00

 Vector  334  Occ=0.000000D+00  E= 4.504438D+00

 Vector  335  Occ=0.000000D+00  E= 4.517315D+00

 Vector  336  Occ=0.000000D+00  E= 4.572969D+00

 Vector  337  Occ=0.000000D+00  E= 4.625371D+00

 Vector  338  Occ=0.000000D+00  E= 4.649513D+00

 Vector  339  Occ=0.000000D+00  E= 4.656249D+00

 Vector  340  Occ=0.000000D+00  E= 4.703808D+00

 Vector  341  Occ=0.000000D+00  E= 4.720287D+00

 Vector  342  Occ=0.000000D+00  E= 4.750686D+00

 Vector  343  Occ=0.000000D+00  E= 4.752373D+00

 Vector  344  Occ=0.000000D+00  E= 4.765725D+00

 Vector  345  Occ=0.000000D+00  E= 4.801258D+00

 Vector  346  Occ=0.000000D+00  E= 4.804228D+00

 Vector  347  Occ=0.000000D+00  E= 4.806602D+00

 Vector  348  Occ=0.000000D+00  E= 4.821488D+00

 Vector  349  Occ=0.000000D+00  E= 4.856961D+00

 Vector  350  Occ=0.000000D+00  E= 4.901680D+00

 Vector  351  Occ=0.000000D+00  E= 4.932460D+00

 Vector  352  Occ=0.000000D+00  E= 4.945802D+00

 Vector  353  Occ=0.000000D+00  E= 4.957596D+00

 Vector  354  Occ=0.000000D+00  E= 4.980623D+00

 Vector  355  Occ=0.000000D+00  E= 5.083954D+00

 Vector  356  Occ=0.000000D+00  E= 5.086808D+00

 Vector  357  Occ=0.000000D+00  E= 5.091169D+00

 Vector  358  Occ=0.000000D+00  E= 5.164875D+00

 Vector  359  Occ=0.000000D+00  E= 5.258320D+00

 Vector  360  Occ=0.000000D+00  E= 5.320862D+00

 Vector  361  Occ=0.000000D+00  E= 5.321318D+00

 Vector  362  Occ=0.000000D+00  E= 5.408558D+00

 Vector  363  Occ=0.000000D+00  E= 5.412178D+00

 Vector  364  Occ=0.000000D+00  E= 5.433354D+00

 Vector  365  Occ=0.000000D+00  E= 5.620082D+00

 Vector  366  Occ=0.000000D+00  E= 5.632670D+00

 Vector  367  Occ=0.000000D+00  E= 5.679990D+00

 Vector  368  Occ=0.000000D+00  E= 5.746533D+00

 Vector  369  Occ=0.000000D+00  E= 5.799633D+00

 Vector  370  Occ=0.000000D+00  E= 5.916773D+00

 Vector  371  Occ=0.000000D+00  E= 5.927113D+00

 Vector  372  Occ=0.000000D+00  E= 6.045481D+00

 Vector  373  Occ=0.000000D+00  E= 6.163140D+00

 Vector  374  Occ=0.000000D+00  E= 6.250041D+00

 Vector  375  Occ=0.000000D+00  E= 6.402165D+00

 Vector  376  Occ=0.000000D+00  E= 6.446651D+00

 Vector  377  Occ=0.000000D+00  E= 6.600717D+00

 Vector  378  Occ=0.000000D+00  E= 6.858841D+00

 Vector  379  Occ=0.000000D+00  E= 1.502034D+01

 Vector  380  Occ=0.000000D+00  E= 1.503998D+01

 Vector  381  Occ=0.000000D+00  E= 1.596347D+01

 Vector  382  Occ=0.000000D+00  E= 1.761238D+01

 Vector  383  Occ=0.000000D+00  E= 1.797713D+01

 Vector  384  Occ=0.000000D+00  E= 1.803903D+01

     Multipole analysis of the density
     ---------------------------------

     L   x y z        total         alpha         beta         nuclear
     -   - - -        -----         -----         ----         -------
     0   0 0 0     -0.000000    -21.000000    -20.000000     41.000000

     1   1 0 0      0.021280      0.106721     -0.085441     -0.000000
     1   0 1 0     -0.339999     -1.694941      1.354942      0.000000
     1   0 0 1     -0.000001     -0.000001     -0.000000      0.000000

     2   2 0 0    -22.666146   -108.705182   -106.723063    192.762099
     2   1 1 0      0.190190     -0.490153     -1.118758      1.799101
     2   1 0 1      0.000000     -0.000001     -0.000001      0.000002
     2   0 2 0    -25.672716   -100.956846    -89.037292    164.321422
     2   0 1 1     -0.000005     -0.000004     -0.000003      0.000001

  Root   1         a              0.106177967 a.u.                2.8893 eV
     Dipole Oscillator Strength                    0.0012101365
  Root   2         a              0.125911980 a.u.                3.4262 eV
     Dipole Oscillator Strength                    0.0000000000
  Root   3         a              0.142744487 a.u.                3.8843 eV
     Dipole Oscillator Strength                    0.0000120519
  Root   4         a              0.170159709 a.u.                4.6303 eV
     Dipole Oscillator Strength                    0.0000000000
  Root   5         a              0.171007816 a.u.                4.6534 eV
     Dipole Oscillator Strength                    0.0002482377
  Root   6         a              0.173727826 a.u.                4.7274 eV
     Dipole Oscillator Strength                    0.0037334824
  Root   7         a              0.176805370 a.u.                4.8111 eV
     Dipole Oscillator Strength                    0.0000128666
  Root   8         a              0.191521041 a.u.                5.2116 eV
     Dipole Oscillator Strength                    0.0006916293
  Root   9         a              0.201365686 a.u.                5.4794 eV
     Dipole Oscillator Strength                    0.0064545005
  Root  10         a              0.211067763 a.u.                5.7434 eV
     Dipole Oscillator Strength                    0.0075412424
  Root  11         a              0.215691033 a.u.                5.8693 eV
     Dipole Oscillator Strength                    0.0015396831
  Root  12         a              0.222916787 a.u.                6.0659 eV
     Dipole Oscillator Strength                    0.0002814516
  Root  13         a              0.224192455 a.u.                6.1006 eV
     Dipole Oscillator Strength                    0.0044394015
  Root  14         a              0.228446407 a.u.                6.2163 eV
     Dipole Oscillator Strength                    0.0000000001
  Root  15         a              0.228599000 a.u.                6.2205 eV
     Dipole Oscillator Strength                    0.0091228376
  Root  16         a              0.229535669 a.u.                6.2460 eV
     Dipole Oscillator Strength                    0.0010105143
  Root  17         a              0.229837430 a.u.                6.2542 eV
     Dipole Oscillator Strength                    0.0000000001
  Root  18         a              0.232243998 a.u.                6.3197 eV
     Dipole Oscillator Strength                    0.0227279209
  Root  19         a              0.234971391 a.u.                6.3939 eV
     Dipole Oscillator Strength                    0.0001798758
  Root  20         a              0.241578831 a.u.                6.5737 eV
     Dipole Oscillator Strength                    0.0000000001
  Root  21         a              0.242468138 a.u.                6.5979 eV
     Dipole Oscillator Strength                    0.0985691386
  Root  22         a              0.245108340 a.u.                6.6697 eV
     Dipole Oscillator Strength                    0.0017625501
  Root  23         a              0.246201916 a.u.                6.6995 eV
     Dipole Oscillator Strength                    0.0334549868
  Root  24         a              0.247139772 a.u.                6.7250 eV
     Dipole Oscillator Strength                    0.0013038032
  Root  25         a              0.248168823 a.u.                6.7530 eV
     Dipole Oscillator Strength                    0.0000000001
  Root  26         a              0.251111135 a.u.                6.8331 eV
     Dipole Oscillator Strength                    0.0582729089
  Root  27         a              0.251819350 a.u.                6.8524 eV
     Dipole Oscillator Strength                    0.0100912027
  Root  28         a              0.252444187 a.u.                6.8694 eV
     Dipole Oscillator Strength                    0.0000000006
  Root  29         a              0.253814664 a.u.                6.9067 eV
     Dipole Oscillator Strength                    0.0000000005
  Root  30         a              0.254455191 a.u.                6.9241 eV
     Dipole Oscillator Strength                    0.3751404057
  Root  31         a              0.255377646 a.u.                6.9492 eV
     Dipole Oscillator Strength                    0.0692396356
  Root  32         a              0.260818008 a.u.                7.0972 eV
     Dipole Oscillator Strength                    0.0015958246
  Root  33         a              0.265220681 a.u.                7.2170 eV
     Dipole Oscillator Strength                    0.0000000000
  Root  34         a              0.267068666 a.u.                7.2673 eV
     Dipole Oscillator Strength                    0.2606886489
  Root  35         a              0.270592899 a.u.                7.3632 eV
     Dipole Oscillator Strength                    0.0004149620
  Root  36         a              0.270597311 a.u.                7.3633 eV
     Dipole Oscillator Strength                    0.0000169767
  Root  37         a              0.271604501 a.u.                7.3907 eV
     Dipole Oscillator Strength                    0.0001119345
  Root  38         a              0.271762390 a.u.                7.3950 eV
     Dipole Oscillator Strength                    0.0421228919
  Root  39         a              0.272103034 a.u.                7.4043 eV
     Dipole Oscillator Strength                    0.0000000002
  Root  40         a              0.272313192 a.u.                7.4100 eV
     Dipole Oscillator Strength                    0.0003131155
 Total times  cpu:     2599.3s     wall:     2706.1s
