============================== echo of input deck ==============================
echo
start

title "None"

geometry
C    -0.08666039    1.38835547    0.00000005
C    -1.26603885    0.68996364   -0.00000002
C    -1.16853838   -0.70601349   -0.00000002
C     0.08207797   -1.31604215    0.00000004
C     1.24519975   -0.55147389   -0.00000001
C     1.17174616    0.84604056    0.00000005
H    -2.23010266    1.18072031   -0.00000010
H    -2.06917570   -1.30658094   -0.00000009
H     0.15211646   -2.39529933   -0.00000000
H     2.21331499   -1.03588094   -0.00000013
H     2.06777056    1.45210090   -0.00000010
symmetry c1
end

basis spherical
 * library "aug-cc-pvtz"
end

dft
 direct
 mult 2
 iterations 500
 xc b3lyp
end

tddft
 nroots 40
 notriplet
 algorithm 1
end
task tddft energy
================================================================================

 Output coordinates in angstroms (scale by  1.889725989 to convert to a.u.)

  No.       Tag          Charge          X              Y              Z
 ---- ---------------- ---------- -------------- -------------- --------------
    1 C                    6.0000    -0.08667603     1.38835447     0.00000005
    2 C                    6.0000    -1.26605449     0.68996264    -0.00000002
    3 C                    6.0000    -1.16855402    -0.70601449    -0.00000002
    4 C                    6.0000     0.08206233    -1.31604315     0.00000004
    5 C                    6.0000     1.24518411    -0.55147489    -0.00000001
    6 C                    6.0000     1.17173052     0.84603956     0.00000005
    7 H                    1.0000    -2.23011830     1.18071931    -0.00000010
    8 H                    1.0000    -2.06919134    -1.30658194    -0.00000009
    9 H                    1.0000     0.15210082    -2.39530033    -0.00000000
   10 H                    1.0000     2.21329935    -1.03588194    -0.00000013
   11 H                    1.0000     2.06775492     1.45209990    -0.00000010

         Total DFT energy =     -231.646318103760

                    DFT Final Alpha Molecular Orbital Analysis
                    ------------------------------------------

 Vector    1  Occ=1.000000D+00  E=-1.020518D+01

 Vector  305  Occ=0.000000D+00  E= 3.874519D+00

 Vector  306  Occ=0.000000D+00  E= 3.900090D+00

 Vector  307  Occ=0.000000D+00  E= 3.910032D+00

 Vector  308  Occ=0.000000D+00  E= 3.921930D+00

 Vector  309  Occ=0.000000D+00  E= 3.926226D+00

 Vector  310  Occ=0.000000D+00  E= 3.952341D+00

 Vector  311  Occ=0.000000D+00  E= 3.958714D+00

 Vector  312  Occ=0.000000D+00  E= 3.962760D+00

 Vector  313  Occ=0.000000D+00  E= 3.989410D+00

 Vector  314  Occ=0.000000D+00  E= 3.994113D+00

 Vector  315  Occ=0.000000D+00  E= 4.010665D+00

 Vector  316  Occ=0.000000D+00  E= 4.032984D+00

 Vector  317  Occ=0.000000D+00  E= 4.060700D+00

 Vector  318  Occ=0.000000D+00  E= 4.069947D+00

 Vector  319  Occ=0.000000D+00  E= 4.102762D+00

 Vector  320  Occ=0.000000D+00  E= 4.103624D+00

 Vector  321  Occ=0.000000D+00  E= 4.105867D+00

 Vector  322  Occ=0.000000D+00  E= 4.153998D+00

 Vector  323  Occ=0.000000D+00  E= 4.206772D+00

 Vector  324  Occ=0.000000D+00  E= 4.230572D+00

 Vector  325  Occ=0.000000D+00  E= 4.236957D+00

 Vector  326  Occ=0.000000D+00  E= 4.330768D+00

 Vector  327  Occ=0.000000D+00  E= 4.345418D+00

 Vector  328  Occ=0.000000D+00  E= 4.390467D+00

 Vector  329  Occ=0.000000D+00  E= 4.420619D+00

 Vector  330  Occ=0.000000D+00  E= 4.444561D+00

 Vector  331  Occ=0.000000D+00  E= 4.462538D+00

 Vector  332  Occ=0.000000D+00  E= 4.485932D+00

 Vector  333  Occ=0.000000D+00  E= 4.490573D+00

 Vector  334  Occ=0.000000D+00  E= 4.506263D+00

 Vector  335  Occ=0.000000D+00  E= 4.520554D+00

 Vector  336  Occ=0.000000D+00  E= 4.575877D+00

 Vector  337  Occ=0.000000D+00  E= 4.627099D+00

 Vector  338  Occ=0.000000D+00  E= 4.651219D+00

 Vector  339  Occ=0.000000D+00  E= 4.658390D+00

 Vector  340  Occ=0.000000D+00  E= 4.705153D+00

 Vector  341  Occ=0.000000D+00  E= 4.720325D+00

 Vector  342  Occ=0.000000D+00  E= 4.750721D+00

 Vector  343  Occ=0.000000D+00  E= 4.754480D+00

 Vector  344  Occ=0.000000D+00  E= 4.767717D+00

 Vector  345  Occ=0.000000D+00  E= 4.802297D+00

 Vector  346  Occ=0.000000D+00  E= 4.804979D+00

 Vector  347  Occ=0.000000D+00  E= 4.807622D+00

 Vector  348  Occ=0.000000D+00  E= 4.822878D+00

 Vector  349  Occ=0.000000D+00  E= 4.857704D+00

 Vector  350  Occ=0.000000D+00  E= 4.903514D+00

 Vector  351  Occ=0.000000D+00  E= 4.933819D+00

 Vector  352  Occ=0.000000D+00  E= 4.949587D+00

 Vector  353  Occ=0.000000D+00  E= 4.959844D+00

 Vector  354  Occ=0.000000D+00  E= 4.982601D+00

 Vector  355  Occ=0.000000D+00  E= 5.085668D+00

 Vector  356  Occ=0.000000D+00  E= 5.088884D+00

 Vector  357  Occ=0.000000D+00  E= 5.093034D+00

 Vector  358  Occ=0.000000D+00  E= 5.166980D+00

 Vector  359  Occ=0.000000D+00  E= 5.260259D+00

 Vector  360  Occ=0.000000D+00  E= 5.322850D+00

 Vector  361  Occ=0.000000D+00  E= 5.324026D+00

 Vector  362  Occ=0.000000D+00  E= 5.410721D+00

 Vector  363  Occ=0.000000D+00  E= 5.415700D+00

 Vector  364  Occ=0.000000D+00  E= 5.436330D+00

 Vector  365  Occ=0.000000D+00  E= 5.620365D+00

 Vector  366  Occ=0.000000D+00  E= 5.635076D+00

 Vector  367  Occ=0.000000D+00  E= 5.682412D+00

 Vector  368  Occ=0.000000D+00  E= 5.748853D+00

 Vector  369  Occ=0.000000D+00  E= 5.802708D+00

 Vector  370  Occ=0.000000D+00  E= 5.918608D+00

 Vector  371  Occ=0.000000D+00  E= 5.931199D+00

 Vector  372  Occ=0.000000D+00  E= 6.047804D+00

 Vector  373  Occ=0.000000D+00  E= 6.165629D+00

 Vector  374  Occ=0.000000D+00  E= 6.253092D+00

 Vector  375  Occ=0.000000D+00  E= 6.406647D+00

 Vector  376  Occ=0.000000D+00  E= 6.449930D+00

 Vector  377  Occ=0.000000D+00  E= 6.604523D+00

 Vector  378  Occ=0.000000D+00  E= 6.864759D+00

 Vector  379  Occ=0.000000D+00  E= 1.504819D+01

 Vector  380  Occ=0.000000D+00  E= 1.506715D+01

 Vector  381  Occ=0.000000D+00  E= 1.597864D+01

 Vector  382  Occ=0.000000D+00  E= 1.764781D+01

 Vector  383  Occ=0.000000D+00  E= 1.800484D+01

 Vector  384  Occ=0.000000D+00  E= 1.806319D+01

     Multipole analysis of the density
     ---------------------------------

     L   x y z        total         alpha         beta         nuclear
     -   - - -        -----         -----         ----         -------
     0   0 0 0     -0.000000    -21.000000    -20.000000     41.000000

     1   1 0 0      0.022471      0.106764     -0.084292     -0.000000
     1   0 1 0     -0.339918     -1.694196      1.354278     -0.000000
     1   0 0 1     -0.000001     -0.000001     -0.000000      0.000000

     2   2 0 0    -22.667489   -108.548793   -106.559751    192.441054
     2   1 1 0      0.204589     -0.622610     -1.253766      2.080965
     2   1 0 1      0.000000     -0.000001     -0.000001      0.000002
     2   0 2 0    -25.674868   -100.826285    -88.916934    164.068351
     2   0 1 1     -0.000005     -0.000004     -0.000003      0.000001

  Root   1         a              0.106136803 a.u.                2.8881 eV
     Dipole Oscillator Strength                    0.0012091328
  Root   2         a              0.126011021 a.u.                3.4289 eV
     Dipole Oscillator Strength                    0.0000000870
  Root   3         a              0.143183442 a.u.                3.8962 eV
     Dipole Oscillator Strength                    0.0000123489
  Root   4         a              0.170292312 a.u.                4.6339 eV
     Dipole Oscillator Strength                    0.0000010948
  Root   5         a              0.171388170 a.u.                4.6637 eV
     Dipole Oscillator Strength                    0.0002474274
  Root   6         a              0.173810493 a.u.                4.7296 eV
     Dipole Oscillator Strength                    0.0037699441
  Root   7         a              0.177176512 a.u.                4.8212 eV
     Dipole Oscillator Strength                    0.0000140373
  Root   8         a              0.191911214 a.u.                5.2222 eV
     Dipole Oscillator Strength                    0.0006749900
  Root   9         a              0.201734446 a.u.                5.4895 eV
     Dipole Oscillator Strength                    0.0064557940
  Root  10         a              0.210936296 a.u.                5.7399 eV
     Dipole Oscillator Strength                    0.0075777936
  Root  11         a              0.215600559 a.u.                5.8668 eV
     Dipole Oscillator Strength                    0.0015030094
  Root  12         a              0.223056598 a.u.                6.0697 eV
     Dipole Oscillator Strength                    0.0002783170
  Root  13         a              0.224530261 a.u.                6.1098 eV
     Dipole Oscillator Strength                    0.0040438536
  Root  14         a              0.228482279 a.u.                6.2173 eV
     Dipole Oscillator Strength                    0.0092161180
  Root  15         a              0.228614363 a.u.                6.2209 eV
     Dipole Oscillator Strength                    0.0000170466
  Root  16         a              0.229638878 a.u.                6.2488 eV
     Dipole Oscillator Strength                    0.0009086615
  Root  17         a              0.230011809 a.u.                6.2589 eV
     Dipole Oscillator Strength                    0.0000643728
  Root  18         a              0.232160936 a.u.                6.3174 eV
     Dipole Oscillator Strength                    0.0225145697
  Root  19         a              0.235324682 a.u.                6.4035 eV
     Dipole Oscillator Strength                    0.0001720758
  Root  20         a              0.241735908 a.u.                6.5780 eV
     Dipole Oscillator Strength                    0.0000140188
  Root  21         a              0.242557149 a.u.                6.6003 eV
     Dipole Oscillator Strength                    0.0948461455
  Root  22         a              0.245299585 a.u.                6.6749 eV
     Dipole Oscillator Strength                    0.0019437456
  Root  23         a              0.246399717 a.u.                6.7049 eV
     Dipole Oscillator Strength                    0.0331629297
  Root  24         a              0.247303979 a.u.                6.7295 eV
     Dipole Oscillator Strength                    0.0012873000
  Root  25         a              0.248320103 a.u.                6.7571 eV
     Dipole Oscillator Strength                    0.0001040036
  Root  26         a              0.251107459 a.u.                6.8330 eV
     Dipole Oscillator Strength                    0.0454481157
  Root  27         a              0.251935276 a.u.                6.8555 eV
     Dipole Oscillator Strength                    0.0096585873
  Root  28         a              0.252700874 a.u.                6.8763 eV
     Dipole Oscillator Strength                    0.0004002280
  Root  29         a              0.253992065 a.u.                6.9115 eV
     Dipole Oscillator Strength                    0.0000053678
  Root  30         a              0.254729567 a.u.                6.9315 eV
     Dipole Oscillator Strength                    0.3867024138
  Root  31         a              0.255322138 a.u.                6.9477 eV
     Dipole Oscillator Strength                    0.0691242973
  Root  32         a              0.260668545 a.u.                7.0932 eV
     Dipole Oscillator Strength                    0.0015912022
  Root  33         a              0.265420848 a.u.                7.2225 eV
     Dipole Oscillator Strength                    0.0000000226
  Root  34         a              0.267152452 a.u.                7.2696 eV
     Dipole Oscillator Strength                    0.2567267967
  Root  35         a              0.270833311 a.u.                7.3698 eV
     Dipole Oscillator Strength                    0.0000160920
  Root  36         a              0.271244448 a.u.                7.3809 eV
     Dipole Oscillator Strength                    0.0004258274
  Root  37         a              0.271692921 a.u.                7.3931 eV
     Dipole Oscillator Strength                    0.0510539173
  Root  38         a              0.271811903 a.u.                7.3964 eV
     Dipole Oscillator Strength                    0.0001064233
  Root  39         a              0.272310729 a.u.                7.4100 eV
     Dipole Oscillator Strength                    0.0000123299
  Root  40         a              0.272523353 a.u.                7.4157 eV
     Dipole Oscillator Strength                    0.0003074032
 Total times  cpu:     2883.0s     wall:     2979.4s
