============================== echo of input deck ==============================
echo
start

title "None"

geometry
C    -0.08755853    1.38830088    0.00000005
C    -1.26726859    0.69111320   -0.00000002
C    -1.16713436   -0.70487946   -0.00000002
C     0.08250128   -1.31601396    0.00000004
C     1.24672112   -0.55244223   -0.00000001
C     1.17066138    0.84476120    0.00000005
H    -2.23140117    1.18168847   -0.00000010
H    -2.06603751   -1.30806076   -0.00000009
H     0.14708397   -2.39561487   -0.00000000
H     2.21615261   -1.03419046   -0.00000013
H     2.06650704    1.45112357   -0.00000010
symmetry c1
end

basis spherical
 * library "aug-cc-pvtz"
end

dft
 direct
 mult 2
 iterations 500
 xc b3lyp
end

tddft
 nroots 40
 notriplet
 algorithm 1
end
task tddft energy
================================================================================

 Output coordinates in angstroms (scale by  1.889725989 to convert to a.u.)

  No.       Tag          Charge          X              Y              Z
 ---- ---------------- ---------- -------------- -------------- --------------
    1 C                    6.0000    -0.08755460     1.38830128     0.00000005
    2 C                    6.0000    -1.26726466     0.69111360    -0.00000002
    3 C                    6.0000    -1.16713043    -0.70487906    -0.00000002
    4 C                    6.0000     0.08250521    -1.31601356     0.00000004
    5 C                    6.0000     1.24672505    -0.55244183    -0.00000001
    6 C                    6.0000     1.17066531     0.84476160     0.00000005
    7 H                    1.0000    -2.23139724     1.18168887    -0.00000010
    8 H                    1.0000    -2.06603358    -1.30806036    -0.00000009
    9 H                    1.0000     0.14708790    -2.39561447    -0.00000000
   10 H                    1.0000     2.21615654    -1.03419006    -0.00000013
   11 H                    1.0000     2.06651097     1.45112397    -0.00000010

         Total DFT energy =     -231.646324436424

                    DFT Final Alpha Molecular Orbital Analysis
                    ------------------------------------------

 Vector    1  Occ=1.000000D+00  E=-1.020524D+01

 Vector  305  Occ=0.000000D+00  E= 3.874552D+00

 Vector  306  Occ=0.000000D+00  E= 3.900103D+00

 Vector  307  Occ=0.000000D+00  E= 3.910083D+00

 Vector  308  Occ=0.000000D+00  E= 3.921994D+00

 Vector  309  Occ=0.000000D+00  E= 3.926195D+00

 Vector  310  Occ=0.000000D+00  E= 3.952389D+00

 Vector  311  Occ=0.000000D+00  E= 3.958740D+00

 Vector  312  Occ=0.000000D+00  E= 3.962811D+00

 Vector  313  Occ=0.000000D+00  E= 3.989443D+00

 Vector  314  Occ=0.000000D+00  E= 3.994114D+00

 Vector  315  Occ=0.000000D+00  E= 4.010704D+00

 Vector  316  Occ=0.000000D+00  E= 4.033085D+00

 Vector  317  Occ=0.000000D+00  E= 4.060743D+00

 Vector  318  Occ=0.000000D+00  E= 4.069978D+00

 Vector  319  Occ=0.000000D+00  E= 4.102747D+00

 Vector  320  Occ=0.000000D+00  E= 4.103668D+00

 Vector  321  Occ=0.000000D+00  E= 4.105881D+00

 Vector  322  Occ=0.000000D+00  E= 4.154018D+00

 Vector  323  Occ=0.000000D+00  E= 4.206775D+00

 Vector  324  Occ=0.000000D+00  E= 4.230678D+00

 Vector  325  Occ=0.000000D+00  E= 4.236987D+00

 Vector  326  Occ=0.000000D+00  E= 4.330785D+00

 Vector  327  Occ=0.000000D+00  E= 4.345448D+00

 Vector  328  Occ=0.000000D+00  E= 4.390506D+00

 Vector  329  Occ=0.000000D+00  E= 4.420634D+00

 Vector  330  Occ=0.000000D+00  E= 4.444590D+00

 Vector  331  Occ=0.000000D+00  E= 4.462560D+00

 Vector  332  Occ=0.000000D+00  E= 4.485887D+00

 Vector  333  Occ=0.000000D+00  E= 4.490644D+00

 Vector  334  Occ=0.000000D+00  E= 4.506279D+00

 Vector  335  Occ=0.000000D+00  E= 4.520577D+00

 Vector  336  Occ=0.000000D+00  E= 4.575951D+00

 Vector  337  Occ=0.000000D+00  E= 4.627139D+00

 Vector  338  Occ=0.000000D+00  E= 4.651161D+00

 Vector  339  Occ=0.000000D+00  E= 4.658386D+00

 Vector  340  Occ=0.000000D+00  E= 4.705132D+00

 Vector  341  Occ=0.000000D+00  E= 4.720332D+00

 Vector  342  Occ=0.000000D+00  E= 4.750769D+00

 Vector  343  Occ=0.000000D+00  E= 4.754669D+00

 Vector  344  Occ=0.000000D+00  E= 4.767709D+00

 Vector  345  Occ=0.000000D+00  E= 4.802322D+00

 Vector  346  Occ=0.000000D+00  E= 4.805033D+00

 Vector  347  Occ=0.000000D+00  E= 4.807704D+00

 Vector  348  Occ=0.000000D+00  E= 4.822862D+00

 Vector  349  Occ=0.000000D+00  E= 4.857637D+00

 Vector  350  Occ=0.000000D+00  E= 4.903573D+00

 Vector  351  Occ=0.000000D+00  E= 4.933754D+00

 Vector  352  Occ=0.000000D+00  E= 4.949644D+00

 Vector  353  Occ=0.000000D+00  E= 4.959770D+00

 Vector  354  Occ=0.000000D+00  E= 4.982646D+00

 Vector  355  Occ=0.000000D+00  E= 5.085452D+00

 Vector  356  Occ=0.000000D+00  E= 5.089169D+00

 Vector  357  Occ=0.000000D+00  E= 5.093055D+00

 Vector  358  Occ=0.000000D+00  E= 5.167002D+00

 Vector  359  Occ=0.000000D+00  E= 5.260344D+00

 Vector  360  Occ=0.000000D+00  E= 5.322713D+00

 Vector  361  Occ=0.000000D+00  E= 5.324186D+00

 Vector  362  Occ=0.000000D+00  E= 5.410791D+00

 Vector  363  Occ=0.000000D+00  E= 5.415718D+00

 Vector  364  Occ=0.000000D+00  E= 5.436358D+00

 Vector  365  Occ=0.000000D+00  E= 5.620431D+00

 Vector  366  Occ=0.000000D+00  E= 5.635008D+00

 Vector  367  Occ=0.000000D+00  E= 5.682415D+00

 Vector  368  Occ=0.000000D+00  E= 5.749064D+00

 Vector  369  Occ=0.000000D+00  E= 5.802497D+00

 Vector  370  Occ=0.000000D+00  E= 5.919737D+00

 Vector  371  Occ=0.000000D+00  E= 5.930101D+00

 Vector  372  Occ=0.000000D+00  E= 6.047969D+00

 Vector  373  Occ=0.000000D+00  E= 6.165673D+00

 Vector  374  Occ=0.000000D+00  E= 6.253108D+00

 Vector  375  Occ=0.000000D+00  E= 6.406698D+00

 Vector  376  Occ=0.000000D+00  E= 6.449945D+00

 Vector  377  Occ=0.000000D+00  E= 6.604556D+00

 Vector  378  Occ=0.000000D+00  E= 6.864835D+00

 Vector  379  Occ=0.000000D+00  E= 1.504865D+01

 Vector  380  Occ=0.000000D+00  E= 1.506669D+01

 Vector  381  Occ=0.000000D+00  E= 1.597870D+01

 Vector  382  Occ=0.000000D+00  E= 1.764809D+01

 Vector  383  Occ=0.000000D+00  E= 1.800496D+01

 Vector  384  Occ=0.000000D+00  E= 1.806323D+01

     Multipole analysis of the density
     ---------------------------------

     L   x y z        total         alpha         beta         nuclear
     -   - - -        -----         -----         ----         -------
     0   0 0 0     -0.000000    -21.000000    -20.000000     41.000000

     1   1 0 0      0.021318      0.106570     -0.085252      0.000000
     1   0 1 0     -0.340484     -1.694586      1.354102     -0.000000
     1   0 0 1     -0.000001     -0.000001     -0.000000      0.000000

     2   2 0 0    -22.669730   -108.559548   -106.574552    192.464371
     2   1 1 0      0.197734     -0.518038     -1.147185      1.862957
     2   1 0 1      0.000000     -0.000001     -0.000001      0.000002
     2   0 2 0    -25.675294   -100.815667    -88.904185    164.044559
     2   0 1 1     -0.000005     -0.000003     -0.000003      0.000001

  Root   1         a              0.106298539 a.u.                2.8925 eV
     Dipole Oscillator Strength                    0.0012113034
  Root   2         a              0.126063951 a.u.                3.4304 eV
     Dipole Oscillator Strength                    0.0000000046
  Root   3         a              0.143224607 a.u.                3.8973 eV
     Dipole Oscillator Strength                    0.0000121745
  Root   4         a              0.170392459 a.u.                4.6366 eV
     Dipole Oscillator Strength                    0.0000014547
  Root   5         a              0.171411081 a.u.                4.6643 eV
     Dipole Oscillator Strength                    0.0002491404
  Root   6         a              0.173946998 a.u.                4.7333 eV
     Dipole Oscillator Strength                    0.0037538487
  Root   7         a              0.177213008 a.u.                4.8222 eV
     Dipole Oscillator Strength                    0.0000130195
  Root   8         a              0.191914473 a.u.                5.2223 eV
     Dipole Oscillator Strength                    0.0006900360
  Root   9         a              0.201774890 a.u.                5.4906 eV
     Dipole Oscillator Strength                    0.0064729809
  Root  10         a              0.211026248 a.u.                5.7423 eV
     Dipole Oscillator Strength                    0.0075576935
  Root  11         a              0.215667187 a.u.                5.8686 eV
     Dipole Oscillator Strength                    0.0015006270
  Root  12         a              0.223040716 a.u.                6.0692 eV
     Dipole Oscillator Strength                    0.0002776350
  Root  13         a              0.224549277 a.u.                6.1103 eV
     Dipole Oscillator Strength                    0.0041457716
  Root  14         a              0.228571387 a.u.                6.2197 eV
     Dipole Oscillator Strength                    0.0092142718
  Root  15         a              0.228589223 a.u.                6.2202 eV
     Dipole Oscillator Strength                    0.0000015003
  Root  16         a              0.229661882 a.u.                6.2494 eV
     Dipole Oscillator Strength                    0.0009861643
  Root  17         a              0.229981358 a.u.                6.2581 eV
     Dipole Oscillator Strength                    0.0000074442
  Root  18         a              0.232244130 a.u.                6.3197 eV
     Dipole Oscillator Strength                    0.0225642764
  Root  19         a              0.235381284 a.u.                6.4051 eV
     Dipole Oscillator Strength                    0.0001692334
  Root  20         a              0.241723561 a.u.                6.5776 eV
     Dipole Oscillator Strength                    0.0000005444
  Root  21         a              0.242602712 a.u.                6.6016 eV
     Dipole Oscillator Strength                    0.0951694761
  Root  22         a              0.245274422 a.u.                6.6743 eV
     Dipole Oscillator Strength                    0.0017830378
  Root  23         a              0.246366890 a.u.                6.7040 eV
     Dipole Oscillator Strength                    0.0333607448
  Root  24         a              0.247300556 a.u.                6.7294 eV
     Dipole Oscillator Strength                    0.0013346958
  Root  25         a              0.248319155 a.u.                6.7571 eV
     Dipole Oscillator Strength                    0.0000118289
  Root  26         a              0.251183905 a.u.                6.8351 eV
     Dipole Oscillator Strength                    0.0472033062
  Root  27         a              0.251971465 a.u.                6.8565 eV
     Dipole Oscillator Strength                    0.0100194008
  Root  28         a              0.252623722 a.u.                6.8742 eV
     Dipole Oscillator Strength                    0.0000685578
  Root  29         a              0.253984786 a.u.                6.9113 eV
     Dipole Oscillator Strength                    0.0000001538
  Root  30         a              0.254758501 a.u.                6.9323 eV
     Dipole Oscillator Strength                    0.3854668639
  Root  31         a              0.255406817 a.u.                6.9500 eV
     Dipole Oscillator Strength                    0.0691876906
  Root  32         a              0.260752302 a.u.                7.0954 eV
     Dipole Oscillator Strength                    0.0015887077
  Root  33         a              0.265402804 a.u.                7.2220 eV
     Dipole Oscillator Strength                    0.0000000523
  Root  34         a              0.267191823 a.u.                7.2707 eV
     Dipole Oscillator Strength                    0.2577343001
  Root  35         a              0.270804638 a.u.                7.3690 eV
     Dipole Oscillator Strength                    0.0000164217
  Root  36         a              0.271249962 a.u.                7.3811 eV
     Dipole Oscillator Strength                    0.0004314388
  Root  37         a              0.271756418 a.u.                7.3949 eV
     Dipole Oscillator Strength                    0.0478726868
  Root  38         a              0.271802696 a.u.                7.3961 eV
     Dipole Oscillator Strength                    0.0001105467
  Root  39         a              0.272291719 a.u.                7.4094 eV
     Dipole Oscillator Strength                    0.0000017115
  Root  40         a              0.272513389 a.u.                7.4155 eV
     Dipole Oscillator Strength                    0.0003126536
 Total times  cpu:     2977.0s     wall:     3071.8s
