============================== echo of input deck ==============================
echo
start

title "None"

geometry
C    -0.08747224    1.38830409   -0.00000001
C    -1.26735482    0.69112092   -0.00045056
C    -1.16733630   -0.70470852   -0.00032218
C     0.08291598   -1.31598916   -0.00000002
C     1.24655610   -0.55261762    0.00032215
C     1.17058620    0.84472727    0.00045071
H    -2.23189055    1.18090100    0.00286930
H    -2.06748412   -1.30603725    0.00233675
H     0.15092404   -2.39537432    0.00000018
H     2.21506130   -1.03620839   -0.00233638
H     2.06601969    1.45169726   -0.00287009
symmetry c1
end

basis spherical
 * library "aug-cc-pvtz"
end

dft
 direct
 mult 2
 iterations 500
 xc b3lyp
end

tddft
 nroots 40
 notriplet
 algorithm 1
end
task tddft energy
================================================================================

 Output coordinates in angstroms (scale by  1.889725989 to convert to a.u.)

  No.       Tag          Charge          X              Y              Z
 ---- ---------------- ---------- -------------- -------------- --------------
    1 C                    6.0000    -0.08747224     1.38830409    -0.00000002
    2 C                    6.0000    -1.26735482     0.69112092    -0.00045057
    3 C                    6.0000    -1.16733630    -0.70470852    -0.00032219
    4 C                    6.0000     0.08291598    -1.31598916    -0.00000003
    5 C                    6.0000     1.24655610    -0.55261762     0.00032214
    6 C                    6.0000     1.17058620     0.84472727     0.00045070
    7 H                    1.0000    -2.23189055     1.18090100     0.00286929
    8 H                    1.0000    -2.06748412    -1.30603725     0.00233674
    9 H                    1.0000     0.15092404    -2.39537432     0.00000017
   10 H                    1.0000     2.21506130    -1.03620839    -0.00233639
   11 H                    1.0000     2.06601969     1.45169726    -0.00287010

         Total DFT energy =     -231.646325809568

                    DFT Final Alpha Molecular Orbital Analysis
                    ------------------------------------------

 Vector    1  Occ=1.000000D+00  E=-1.020525D+01

 Vector  305  Occ=0.000000D+00  E= 3.874564D+00

 Vector  306  Occ=0.000000D+00  E= 3.900127D+00

 Vector  307  Occ=0.000000D+00  E= 3.910032D+00

 Vector  308  Occ=0.000000D+00  E= 3.921968D+00

 Vector  309  Occ=0.000000D+00  E= 3.926206D+00

 Vector  310  Occ=0.000000D+00  E= 3.952423D+00

 Vector  311  Occ=0.000000D+00  E= 3.958649D+00

 Vector  312  Occ=0.000000D+00  E= 3.962860D+00

 Vector  313  Occ=0.000000D+00  E= 3.989423D+00

 Vector  314  Occ=0.000000D+00  E= 3.994119D+00

 Vector  315  Occ=0.000000D+00  E= 4.010691D+00

 Vector  316  Occ=0.000000D+00  E= 4.033077D+00

 Vector  317  Occ=0.000000D+00  E= 4.060726D+00

 Vector  318  Occ=0.000000D+00  E= 4.070018D+00

 Vector  319  Occ=0.000000D+00  E= 4.102840D+00

 Vector  320  Occ=0.000000D+00  E= 4.103516D+00

 Vector  321  Occ=0.000000D+00  E= 4.105927D+00

 Vector  322  Occ=0.000000D+00  E= 4.154016D+00

 Vector  323  Occ=0.000000D+00  E= 4.206761D+00

 Vector  324  Occ=0.000000D+00  E= 4.230623D+00

 Vector  325  Occ=0.000000D+00  E= 4.236969D+00

 Vector  326  Occ=0.000000D+00  E= 4.330784D+00

 Vector  327  Occ=0.000000D+00  E= 4.345509D+00

 Vector  328  Occ=0.000000D+00  E= 4.390497D+00

 Vector  329  Occ=0.000000D+00  E= 4.420646D+00

 Vector  330  Occ=0.000000D+00  E= 4.444487D+00

 Vector  331  Occ=0.000000D+00  E= 4.462660D+00

 Vector  332  Occ=0.000000D+00  E= 4.485963D+00

 Vector  333  Occ=0.000000D+00  E= 4.490596D+00

 Vector  334  Occ=0.000000D+00  E= 4.506293D+00

 Vector  335  Occ=0.000000D+00  E= 4.520555D+00

 Vector  336  Occ=0.000000D+00  E= 4.575938D+00

 Vector  337  Occ=0.000000D+00  E= 4.627120D+00

 Vector  338  Occ=0.000000D+00  E= 4.651210D+00

 Vector  339  Occ=0.000000D+00  E= 4.658438D+00

 Vector  340  Occ=0.000000D+00  E= 4.705178D+00

 Vector  341  Occ=0.000000D+00  E= 4.720342D+00

 Vector  342  Occ=0.000000D+00  E= 4.750786D+00

 Vector  343  Occ=0.000000D+00  E= 4.754485D+00

 Vector  344  Occ=0.000000D+00  E= 4.767724D+00

 Vector  345  Occ=0.000000D+00  E= 4.802314D+00

 Vector  346  Occ=0.000000D+00  E= 4.804987D+00

 Vector  347  Occ=0.000000D+00  E= 4.807751D+00

 Vector  348  Occ=0.000000D+00  E= 4.822830D+00

 Vector  349  Occ=0.000000D+00  E= 4.857680D+00

 Vector  350  Occ=0.000000D+00  E= 4.903560D+00

 Vector  351  Occ=0.000000D+00  E= 4.933798D+00

 Vector  352  Occ=0.000000D+00  E= 4.949649D+00

 Vector  353  Occ=0.000000D+00  E= 4.959774D+00

 Vector  354  Occ=0.000000D+00  E= 4.982619D+00

 Vector  355  Occ=0.000000D+00  E= 5.085765D+00

 Vector  356  Occ=0.000000D+00  E= 5.088824D+00

 Vector  357  Occ=0.000000D+00  E= 5.093103D+00

 Vector  358  Occ=0.000000D+00  E= 5.167008D+00

 Vector  359  Occ=0.000000D+00  E= 5.260313D+00

 Vector  360  Occ=0.000000D+00  E= 5.323262D+00

 Vector  361  Occ=0.000000D+00  E= 5.323632D+00

 Vector  362  Occ=0.000000D+00  E= 5.410738D+00

 Vector  363  Occ=0.000000D+00  E= 5.415703D+00

 Vector  364  Occ=0.000000D+00  E= 5.436393D+00

 Vector  365  Occ=0.000000D+00  E= 5.620431D+00

 Vector  366  Occ=0.000000D+00  E= 5.635072D+00

 Vector  367  Occ=0.000000D+00  E= 5.682446D+00

 Vector  368  Occ=0.000000D+00  E= 5.749041D+00

 Vector  369  Occ=0.000000D+00  E= 5.802511D+00

 Vector  370  Occ=0.000000D+00  E= 5.919762D+00

 Vector  371  Occ=0.000000D+00  E= 5.930061D+00

 Vector  372  Occ=0.000000D+00  E= 6.047834D+00

 Vector  373  Occ=0.000000D+00  E= 6.165658D+00

 Vector  374  Occ=0.000000D+00  E= 6.253112D+00

 Vector  375  Occ=0.000000D+00  E= 6.406665D+00

 Vector  376  Occ=0.000000D+00  E= 6.449963D+00

 Vector  377  Occ=0.000000D+00  E= 6.604563D+00

 Vector  378  Occ=0.000000D+00  E= 6.864792D+00

 Vector  379  Occ=0.000000D+00  E= 1.504891D+01

 Vector  380  Occ=0.000000D+00  E= 1.506634D+01

 Vector  381  Occ=0.000000D+00  E= 1.597855D+01

 Vector  382  Occ=0.000000D+00  E= 1.764798D+01

 Vector  383  Occ=0.000000D+00  E= 1.800502D+01

 Vector  384  Occ=0.000000D+00  E= 1.806301D+01

     Multipole analysis of the density
     ---------------------------------

     L   x y z        total         alpha         beta         nuclear
     -   - - -        -----         -----         ----         -------
     0   0 0 0     -0.000000    -21.000000    -20.000000     41.000000

     1   1 0 0      0.021581      0.106833     -0.085252     -0.000000
     1   0 1 0     -0.340559     -1.694600      1.354041      0.000000
     1   0 0 1      0.000000      0.000000     -0.000000     -0.000000

     2   2 0 0    -22.668340   -108.564889   -106.579944    192.476493
     2   1 1 0      0.190313     -0.490520     -1.118463      1.799295
     2   1 0 1     -0.016218      0.012438      0.010920     -0.039576
     2   0 2 0    -25.676883   -100.810450    -88.898992    164.032559
     2   0 1 1     -0.001023      0.000785      0.000689     -0.002497

  Root   1         a              0.106293713 a.u.                2.8924 eV
     Dipole Oscillator Strength                    0.0012112402
  Root   2         a              0.126064187 a.u.                3.4304 eV
     Dipole Oscillator Strength                    0.0000005612
  Root   3         a              0.143225742 a.u.                3.8974 eV
     Dipole Oscillator Strength                    0.0000122038
  Root   4         a              0.170396733 a.u.                4.6367 eV
     Dipole Oscillator Strength                    0.0000003970
  Root   5         a              0.171409844 a.u.                4.6643 eV
     Dipole Oscillator Strength                    0.0002497832
  Root   6         a              0.173941345 a.u.                4.7332 eV
     Dipole Oscillator Strength                    0.0037549964
  Root   7         a              0.177210372 a.u.                4.8221 eV
     Dipole Oscillator Strength                    0.0000130624
  Root   8         a              0.191913867 a.u.                5.2222 eV
     Dipole Oscillator Strength                    0.0006898497
  Root   9         a              0.201773636 a.u.                5.4905 eV
     Dipole Oscillator Strength                    0.0064726222
  Root  10         a              0.211025066 a.u.                5.7423 eV
     Dipole Oscillator Strength                    0.0075573309
  Root  11         a              0.215668327 a.u.                5.8686 eV
     Dipole Oscillator Strength                    0.0015007872
  Root  12         a              0.223037589 a.u.                6.0692 eV
     Dipole Oscillator Strength                    0.0002776577
  Root  13         a              0.224549337 a.u.                6.1103 eV
     Dipole Oscillator Strength                    0.0041207951
  Root  14         a              0.228568987 a.u.                6.2197 eV
     Dipole Oscillator Strength                    0.0092155853
  Root  15         a              0.228594827 a.u.                6.2204 eV
     Dipole Oscillator Strength                    0.0000048994
  Root  16         a              0.229658983 a.u.                6.2493 eV
     Dipole Oscillator Strength                    0.0009948561
  Root  17         a              0.229982205 a.u.                6.2581 eV
     Dipole Oscillator Strength                    0.0000035714
  Root  18         a              0.232244829 a.u.                6.3197 eV
     Dipole Oscillator Strength                    0.0225398879
  Root  19         a              0.235376653 a.u.                6.4049 eV
     Dipole Oscillator Strength                    0.0001716833
  Root  20         a              0.241719057 a.u.                6.5775 eV
     Dipole Oscillator Strength                    0.0000017397
  Root  21         a              0.242599156 a.u.                6.6015 eV
     Dipole Oscillator Strength                    0.0951567804
  Root  22         a              0.245275448 a.u.                6.6743 eV
     Dipole Oscillator Strength                    0.0018208260
  Root  23         a              0.246369113 a.u.                6.7040 eV
     Dipole Oscillator Strength                    0.0333094629
  Root  24         a              0.247300273 a.u.                6.7294 eV
     Dipole Oscillator Strength                    0.0013631304
  Root  25         a              0.248313831 a.u.                6.7570 eV
     Dipole Oscillator Strength                    0.0000003893
  Root  26         a              0.251183351 a.u.                6.8350 eV
     Dipole Oscillator Strength                    0.0472360155
  Root  27         a              0.251973190 a.u.                6.8565 eV
     Dipole Oscillator Strength                    0.0100865818
  Root  28         a              0.252622570 a.u.                6.8742 eV
     Dipole Oscillator Strength                    0.0000222544
  Root  29         a              0.253987840 a.u.                6.9114 eV
     Dipole Oscillator Strength                    0.0000001653
  Root  30         a              0.254756269 a.u.                6.9323 eV
     Dipole Oscillator Strength                    0.3853881751
  Root  31         a              0.255405041 a.u.                6.9499 eV
     Dipole Oscillator Strength                    0.0691915373
  Root  32         a              0.260750665 a.u.                7.0954 eV
     Dipole Oscillator Strength                    0.0015957077
  Root  33         a              0.265400389 a.u.                7.2219 eV
     Dipole Oscillator Strength                    0.0000000177
  Root  34         a              0.267188955 a.u.                7.2706 eV
     Dipole Oscillator Strength                    0.2578422785
  Root  35         a              0.270809777 a.u.                7.3691 eV
     Dipole Oscillator Strength                    0.0000162970
  Root  36         a              0.271252400 a.u.                7.3812 eV
     Dipole Oscillator Strength                    0.0004306399
  Root  37         a              0.271754103 a.u.                7.3948 eV
     Dipole Oscillator Strength                    0.0477702192
  Root  38         a              0.271808561 a.u.                7.3963 eV
     Dipole Oscillator Strength                    0.0001130808
  Root  39         a              0.272284976 a.u.                7.4093 eV
     Dipole Oscillator Strength                    0.0000017227
  Root  40         a              0.272509406 a.u.                7.4154 eV
     Dipole Oscillator Strength                    0.0003125606
 Total times  cpu:     3629.5s     wall:     3754.6s
