============================== echo of input deck ==============================
echo
start

title "None"

geometry
C    -0.08736419    1.38831091    0.00000005
C    -1.26714132    0.69192851   -0.00000002
C    -1.16718591   -0.70522904   -0.00000002
C     0.08225307   -1.31603099    0.00000004
C     1.24663990   -0.55208227   -0.00000001
C     1.17089937    0.84395290    0.00000005
H    -2.23360540    1.17792567   -0.00000010
H    -2.06724043   -1.30673605   -0.00000009
H     0.15186341   -2.39531514   -0.00000000
H     2.21521503   -1.03548512   -0.00000013
H     2.06394495    1.45443387   -0.00000010
symmetry c1
end

basis spherical
 * library "aug-cc-pvtz"
end

dft
 direct
 mult 2
 iterations 500
 xc b3lyp
end

tddft
 nroots 40
 notriplet
 algorithm 1
end
task tddft energy
================================================================================

 Output coordinates in angstroms (scale by  1.889725989 to convert to a.u.)

  No.       Tag          Charge          X              Y              Z
 ---- ---------------- ---------- -------------- -------------- --------------
    1 C                    6.0000    -0.08733451     1.38831278     0.00000005
    2 C                    6.0000    -1.26711164     0.69193038    -0.00000002
    3 C                    6.0000    -1.16715623    -0.70522717    -0.00000002
    4 C                    6.0000     0.08228275    -1.31602912     0.00000004
    5 C                    6.0000     1.24666958    -0.55208040    -0.00000001
    6 C                    6.0000     1.17092905     0.84395477     0.00000005
    7 H                    1.0000    -2.23357572     1.17792754    -0.00000010
    8 H                    1.0000    -2.06721075    -1.30673418    -0.00000009
    9 H                    1.0000     0.15189309    -2.39531327    -0.00000000
   10 H                    1.0000     2.21524471    -1.03548325    -0.00000013
   11 H                    1.0000     2.06397463     1.45443574    -0.00000010

         Total DFT energy =     -231.646315698380

                    DFT Final Alpha Molecular Orbital Analysis
                    ------------------------------------------

 Vector    1  Occ=1.000000D+00  E=-1.020519D+01

 Vector  305  Occ=0.000000D+00  E= 3.874532D+00

 Vector  306  Occ=0.000000D+00  E= 3.900058D+00

 Vector  307  Occ=0.000000D+00  E= 3.910021D+00

 Vector  308  Occ=0.000000D+00  E= 3.921930D+00

 Vector  309  Occ=0.000000D+00  E= 3.926229D+00

 Vector  310  Occ=0.000000D+00  E= 3.952327D+00

 Vector  311  Occ=0.000000D+00  E= 3.958724D+00

 Vector  312  Occ=0.000000D+00  E= 3.962763D+00

 Vector  313  Occ=0.000000D+00  E= 3.989409D+00

 Vector  314  Occ=0.000000D+00  E= 3.994108D+00

 Vector  315  Occ=0.000000D+00  E= 4.010676D+00

 Vector  316  Occ=0.000000D+00  E= 4.033010D+00

 Vector  317  Occ=0.000000D+00  E= 4.060670D+00

 Vector  318  Occ=0.000000D+00  E= 4.069974D+00

 Vector  319  Occ=0.000000D+00  E= 4.102600D+00

 Vector  320  Occ=0.000000D+00  E= 4.103772D+00

 Vector  321  Occ=0.000000D+00  E= 4.105841D+00

 Vector  322  Occ=0.000000D+00  E= 4.153941D+00

 Vector  323  Occ=0.000000D+00  E= 4.206757D+00

 Vector  324  Occ=0.000000D+00  E= 4.230612D+00

 Vector  325  Occ=0.000000D+00  E= 4.236939D+00

 Vector  326  Occ=0.000000D+00  E= 4.330798D+00

 Vector  327  Occ=0.000000D+00  E= 4.345394D+00

 Vector  328  Occ=0.000000D+00  E= 4.390418D+00

 Vector  329  Occ=0.000000D+00  E= 4.420656D+00

 Vector  330  Occ=0.000000D+00  E= 4.444563D+00

 Vector  331  Occ=0.000000D+00  E= 4.462533D+00

 Vector  332  Occ=0.000000D+00  E= 4.485873D+00

 Vector  333  Occ=0.000000D+00  E= 4.490648D+00

 Vector  334  Occ=0.000000D+00  E= 4.506277D+00

 Vector  335  Occ=0.000000D+00  E= 4.520557D+00

 Vector  336  Occ=0.000000D+00  E= 4.575874D+00

 Vector  337  Occ=0.000000D+00  E= 4.627098D+00

 Vector  338  Occ=0.000000D+00  E= 4.651211D+00

 Vector  339  Occ=0.000000D+00  E= 4.658396D+00

 Vector  340  Occ=0.000000D+00  E= 4.705145D+00

 Vector  341  Occ=0.000000D+00  E= 4.720327D+00

 Vector  342  Occ=0.000000D+00  E= 4.750727D+00

 Vector  343  Occ=0.000000D+00  E= 4.754457D+00

 Vector  344  Occ=0.000000D+00  E= 4.767681D+00

 Vector  345  Occ=0.000000D+00  E= 4.802093D+00

 Vector  346  Occ=0.000000D+00  E= 4.805217D+00

 Vector  347  Occ=0.000000D+00  E= 4.807696D+00

 Vector  348  Occ=0.000000D+00  E= 4.822845D+00

 Vector  349  Occ=0.000000D+00  E= 4.857650D+00

 Vector  350  Occ=0.000000D+00  E= 4.903538D+00

 Vector  351  Occ=0.000000D+00  E= 4.933812D+00

 Vector  352  Occ=0.000000D+00  E= 4.949382D+00

 Vector  353  Occ=0.000000D+00  E= 4.960089D+00

 Vector  354  Occ=0.000000D+00  E= 4.982597D+00

 Vector  355  Occ=0.000000D+00  E= 5.085591D+00

 Vector  356  Occ=0.000000D+00  E= 5.088958D+00

 Vector  357  Occ=0.000000D+00  E= 5.093037D+00

 Vector  358  Occ=0.000000D+00  E= 5.166967D+00

 Vector  359  Occ=0.000000D+00  E= 5.260294D+00

 Vector  360  Occ=0.000000D+00  E= 5.323233D+00

 Vector  361  Occ=0.000000D+00  E= 5.323608D+00

 Vector  362  Occ=0.000000D+00  E= 5.410712D+00

 Vector  363  Occ=0.000000D+00  E= 5.415714D+00

 Vector  364  Occ=0.000000D+00  E= 5.436331D+00

 Vector  365  Occ=0.000000D+00  E= 5.620370D+00

 Vector  366  Occ=0.000000D+00  E= 5.635084D+00

 Vector  367  Occ=0.000000D+00  E= 5.682424D+00

 Vector  368  Occ=0.000000D+00  E= 5.748970D+00

 Vector  369  Occ=0.000000D+00  E= 5.802527D+00

 Vector  370  Occ=0.000000D+00  E= 5.919721D+00

 Vector  371  Occ=0.000000D+00  E= 5.930092D+00

 Vector  372  Occ=0.000000D+00  E= 6.047836D+00

 Vector  373  Occ=0.000000D+00  E= 6.165645D+00

 Vector  374  Occ=0.000000D+00  E= 6.253090D+00

 Vector  375  Occ=0.000000D+00  E= 6.406619D+00

 Vector  376  Occ=0.000000D+00  E= 6.449940D+00

 Vector  377  Occ=0.000000D+00  E= 6.604573D+00

 Vector  378  Occ=0.000000D+00  E= 6.864764D+00

 Vector  379  Occ=0.000000D+00  E= 1.504891D+01

 Vector  380  Occ=0.000000D+00  E= 1.506639D+01

 Vector  381  Occ=0.000000D+00  E= 1.597872D+01

 Vector  382  Occ=0.000000D+00  E= 1.764819D+01

 Vector  383  Occ=0.000000D+00  E= 1.800468D+01

 Vector  384  Occ=0.000000D+00  E= 1.806331D+01

     Multipole analysis of the density
     ---------------------------------

     L   x y z        total         alpha         beta         nuclear
     -   - - -        -----         -----         ----         -------
     0   0 0 0     -0.000000    -21.000000    -20.000000     41.000000

     1   1 0 0      0.020589      0.106271     -0.085682     -0.000000
     1   0 1 0     -0.340175     -1.694289      1.354114      0.000000
     1   0 0 1     -0.000001     -0.000001     -0.000000      0.000000

     2   2 0 0    -22.666498   -108.562916   -106.574992    192.471410
     2   1 1 0      0.196067     -0.510884     -1.132781      1.839732
     2   1 0 1      0.000000     -0.000001     -0.000001      0.000002
     2   0 2 0    -25.676126   -100.812189    -88.901721    164.037785
     2   0 1 1     -0.000005     -0.000003     -0.000003      0.000001

  Root   1         a              0.106132593 a.u.                2.8880 eV
     Dipole Oscillator Strength                    0.0012091544
  Root   2         a              0.126005260 a.u.                3.4288 eV
     Dipole Oscillator Strength                    0.0000000068
  Root   3         a              0.143185061 a.u.                3.8963 eV
     Dipole Oscillator Strength                    0.0000123562
  Root   4         a              0.170297049 a.u.                4.6340 eV
     Dipole Oscillator Strength                    0.0000022544
  Root   5         a              0.171390456 a.u.                4.6638 eV
     Dipole Oscillator Strength                    0.0002472443
  Root   6         a              0.173814143 a.u.                4.7297 eV
     Dipole Oscillator Strength                    0.0037688738
  Root   7         a              0.177179607 a.u.                4.8213 eV
     Dipole Oscillator Strength                    0.0000140552
  Root   8         a              0.191909523 a.u.                5.2221 eV
     Dipole Oscillator Strength                    0.0006749605
  Root   9         a              0.201736704 a.u.                5.4895 eV
     Dipole Oscillator Strength                    0.0064498168
  Root  10         a              0.210939235 a.u.                5.7400 eV
     Dipole Oscillator Strength                    0.0075780773
  Root  11         a              0.215593633 a.u.                5.8666 eV
     Dipole Oscillator Strength                    0.0015028120
  Root  12         a              0.223060345 a.u.                6.0698 eV
     Dipole Oscillator Strength                    0.0002785206
  Root  13         a              0.224531602 a.u.                6.1098 eV
     Dipole Oscillator Strength                    0.0040435723
  Root  14         a              0.228485192 a.u.                6.2174 eV
     Dipole Oscillator Strength                    0.0092181692
  Root  15         a              0.228628378 a.u.                6.2213 eV
     Dipole Oscillator Strength                    0.0000010071
  Root  16         a              0.229644798 a.u.                6.2490 eV
     Dipole Oscillator Strength                    0.0009822387
  Root  17         a              0.229988790 a.u.                6.2583 eV
     Dipole Oscillator Strength                    0.0000068802
  Root  18         a              0.232163870 a.u.                6.3175 eV
     Dipole Oscillator Strength                    0.0225114647
  Root  19         a              0.235318555 a.u.                6.4033 eV
     Dipole Oscillator Strength                    0.0001725023
  Root  20         a              0.241740010 a.u.                6.5781 eV
     Dipole Oscillator Strength                    0.0000021374
  Root  21         a              0.242549088 a.u.                6.6001 eV
     Dipole Oscillator Strength                    0.0947720630
  Root  22         a              0.245300445 a.u.                6.6750 eV
     Dipole Oscillator Strength                    0.0020100801
  Root  23         a              0.246406567 a.u.                6.7051 eV
     Dipole Oscillator Strength                    0.0332119749
  Root  24         a              0.247303940 a.u.                6.7295 eV
     Dipole Oscillator Strength                    0.0012866852
  Root  25         a              0.248310668 a.u.                6.7569 eV
     Dipole Oscillator Strength                    0.0000088517
  Root  26         a              0.251110303 a.u.                6.8331 eV
     Dipole Oscillator Strength                    0.0454970048
  Root  27         a              0.251965516 a.u.                6.8563 eV
     Dipole Oscillator Strength                    0.0100178277
  Root  28         a              0.252670598 a.u.                6.8755 eV
     Dipole Oscillator Strength                    0.0000368111
  Root  29         a              0.253988428 a.u.                6.9114 eV
     Dipole Oscillator Strength                    0.0000006174
  Root  30         a              0.254731264 a.u.                6.9316 eV
     Dipole Oscillator Strength                    0.3867701895
  Root  31         a              0.255324294 a.u.                6.9477 eV
     Dipole Oscillator Strength                    0.0690804625
  Root  32         a              0.260671482 a.u.                7.0932 eV
     Dipole Oscillator Strength                    0.0015915804
  Root  33         a              0.265424268 a.u.                7.2226 eV
     Dipole Oscillator Strength                    0.0000000005
  Root  34         a              0.267151287 a.u.                7.2696 eV
     Dipole Oscillator Strength                    0.2568591615
  Root  35         a              0.270841382 a.u.                7.3700 eV
     Dipole Oscillator Strength                    0.0000154521
  Root  36         a              0.271246447 a.u.                7.3810 eV
     Dipole Oscillator Strength                    0.0004218386
  Root  37         a              0.271694867 a.u.                7.3932 eV
     Dipole Oscillator Strength                    0.0510284230
  Root  38         a              0.271826138 a.u.                7.3968 eV
     Dipole Oscillator Strength                    0.0001128951
  Root  39         a              0.272285841 a.u.                7.4093 eV
     Dipole Oscillator Strength                    0.0000009181
  Root  40         a              0.272525358 a.u.                7.4158 eV
     Dipole Oscillator Strength                    0.0003132242
 Total times  cpu:     2879.0s     wall:     2977.7s
