============================== echo of input deck ==============================
echo
start

title "None"

geometry
C    -0.08743313    1.38769343    0.00000005
C    -1.26672445    0.69189569   -0.00000002
C    -1.16780388   -0.70461944   -0.00000002
C     0.08293538   -1.31628324    0.00000004
C     1.24700847   -0.55246957   -0.00000001
C     1.16986295    0.84541638    0.00000005
H    -2.23292845    1.17831348   -0.00000010
H    -2.06663082   -1.30802932   -0.00000009
H     0.15094429   -2.39575197   -0.00000000
H     2.21446228   -1.03829481   -0.00000013
H     2.06737300    1.44926058   -0.00000010
symmetry c1
end

basis spherical
 * library "aug-cc-pvtz"
end

dft
 direct
 mult 2
 iterations 500
 xc b3lyp
end

tddft
 nroots 40
 notriplet
 algorithm 1
end
task tddft energy
================================================================================

 Output coordinates in angstroms (scale by  1.889725989 to convert to a.u.)

  No.       Tag          Charge          X              Y              Z
 ---- ---------------- ---------- -------------- -------------- --------------
    1 C                    6.0000    -0.08744026     1.38780813     0.00000005
    2 C                    6.0000    -1.26673158     0.69201039    -0.00000002
    3 C                    6.0000    -1.16781101    -0.70450474    -0.00000002
    4 C                    6.0000     0.08292825    -1.31616854     0.00000004
    5 C                    6.0000     1.24700134    -0.55235487    -0.00000001
    6 C                    6.0000     1.16985582     0.84553108     0.00000005
    7 H                    1.0000    -2.23293558     1.17842818    -0.00000010
    8 H                    1.0000    -2.06663795    -1.30791462    -0.00000009
    9 H                    1.0000     0.15093716    -2.39563727    -0.00000000
   10 H                    1.0000     2.21445515    -1.03818011    -0.00000013
   11 H                    1.0000     2.06736587     1.44937528    -0.00000010

         Total DFT energy =     -231.646318753841

                    DFT Final Alpha Molecular Orbital Analysis
                    ------------------------------------------

 Vector    1  Occ=1.000000D+00  E=-1.020509D+01

 Vector  305  Occ=0.000000D+00  E= 3.873615D+00

 Vector  306  Occ=0.000000D+00  E= 3.901055D+00

 Vector  307  Occ=0.000000D+00  E= 3.910294D+00

 Vector  308  Occ=0.000000D+00  E= 3.921810D+00

 Vector  309  Occ=0.000000D+00  E= 3.927200D+00

 Vector  310  Occ=0.000000D+00  E= 3.952504D+00

 Vector  311  Occ=0.000000D+00  E= 3.960233D+00

 Vector  312  Occ=0.000000D+00  E= 3.963321D+00

 Vector  313  Occ=0.000000D+00  E= 3.989120D+00

 Vector  314  Occ=0.000000D+00  E= 3.993093D+00

 Vector  315  Occ=0.000000D+00  E= 4.010117D+00

 Vector  316  Occ=0.000000D+00  E= 4.033198D+00

 Vector  317  Occ=0.000000D+00  E= 4.061375D+00

 Vector  318  Occ=0.000000D+00  E= 4.069600D+00

 Vector  319  Occ=0.000000D+00  E= 4.102408D+00

 Vector  320  Occ=0.000000D+00  E= 4.104722D+00

 Vector  321  Occ=0.000000D+00  E= 4.105697D+00

 Vector  322  Occ=0.000000D+00  E= 4.152906D+00

 Vector  323  Occ=0.000000D+00  E= 4.207570D+00

 Vector  324  Occ=0.000000D+00  E= 4.228646D+00

 Vector  325  Occ=0.000000D+00  E= 4.237092D+00

 Vector  326  Occ=0.000000D+00  E= 4.330712D+00

 Vector  327  Occ=0.000000D+00  E= 4.344425D+00

 Vector  328  Occ=0.000000D+00  E= 4.389768D+00

 Vector  329  Occ=0.000000D+00  E= 4.421858D+00

 Vector  330  Occ=0.000000D+00  E= 4.444436D+00

 Vector  331  Occ=0.000000D+00  E= 4.464188D+00

 Vector  332  Occ=0.000000D+00  E= 4.485187D+00

 Vector  333  Occ=0.000000D+00  E= 4.489280D+00

 Vector  334  Occ=0.000000D+00  E= 4.507687D+00

 Vector  335  Occ=0.000000D+00  E= 4.520367D+00

 Vector  336  Occ=0.000000D+00  E= 4.574941D+00

 Vector  337  Occ=0.000000D+00  E= 4.627416D+00

 Vector  338  Occ=0.000000D+00  E= 4.650373D+00

 Vector  339  Occ=0.000000D+00  E= 4.658327D+00

 Vector  340  Occ=0.000000D+00  E= 4.705642D+00

 Vector  341  Occ=0.000000D+00  E= 4.720615D+00

 Vector  342  Occ=0.000000D+00  E= 4.750585D+00

 Vector  343  Occ=0.000000D+00  E= 4.755513D+00

 Vector  344  Occ=0.000000D+00  E= 4.769369D+00

 Vector  345  Occ=0.000000D+00  E= 4.800879D+00

 Vector  346  Occ=0.000000D+00  E= 4.803511D+00

 Vector  347  Occ=0.000000D+00  E= 4.808028D+00

 Vector  348  Occ=0.000000D+00  E= 4.823574D+00

 Vector  349  Occ=0.000000D+00  E= 4.857829D+00

 Vector  350  Occ=0.000000D+00  E= 4.903708D+00

 Vector  351  Occ=0.000000D+00  E= 4.933300D+00

 Vector  352  Occ=0.000000D+00  E= 4.949684D+00

 Vector  353  Occ=0.000000D+00  E= 4.961331D+00

 Vector  354  Occ=0.000000D+00  E= 4.982807D+00

 Vector  355  Occ=0.000000D+00  E= 5.084954D+00

 Vector  356  Occ=0.000000D+00  E= 5.088666D+00

 Vector  357  Occ=0.000000D+00  E= 5.093381D+00

 Vector  358  Occ=0.000000D+00  E= 5.166235D+00

 Vector  359  Occ=0.000000D+00  E= 5.260261D+00

 Vector  360  Occ=0.000000D+00  E= 5.322686D+00

 Vector  361  Occ=0.000000D+00  E= 5.322893D+00

 Vector  362  Occ=0.000000D+00  E= 5.410744D+00

 Vector  363  Occ=0.000000D+00  E= 5.416204D+00

 Vector  364  Occ=0.000000D+00  E= 5.435566D+00

 Vector  365  Occ=0.000000D+00  E= 5.620816D+00

 Vector  366  Occ=0.000000D+00  E= 5.634920D+00

 Vector  367  Occ=0.000000D+00  E= 5.680997D+00

 Vector  368  Occ=0.000000D+00  E= 5.749460D+00

 Vector  369  Occ=0.000000D+00  E= 5.802742D+00

 Vector  370  Occ=0.000000D+00  E= 5.920678D+00

 Vector  371  Occ=0.000000D+00  E= 5.930902D+00

 Vector  372  Occ=0.000000D+00  E= 6.045831D+00

 Vector  373  Occ=0.000000D+00  E= 6.165347D+00

 Vector  374  Occ=0.000000D+00  E= 6.253077D+00

 Vector  375  Occ=0.000000D+00  E= 6.405788D+00

 Vector  376  Occ=0.000000D+00  E= 6.450987D+00

 Vector  377  Occ=0.000000D+00  E= 6.603543D+00

 Vector  378  Occ=0.000000D+00  E= 6.863171D+00

 Vector  379  Occ=0.000000D+00  E= 1.505896D+01

 Vector  380  Occ=0.000000D+00  E= 1.506154D+01

 Vector  381  Occ=0.000000D+00  E= 1.597924D+01

 Vector  382  Occ=0.000000D+00  E= 1.764517D+01

 Vector  383  Occ=0.000000D+00  E= 1.800633D+01

 Vector  384  Occ=0.000000D+00  E= 1.806008D+01

     Multipole analysis of the density
     ---------------------------------

     L   x y z        total         alpha         beta         nuclear
     -   - - -        -----         -----         ----         -------
     0   0 0 0     -0.000000    -21.000000    -20.000000     41.000000

     1   1 0 0      0.021663      0.106765     -0.085102     -0.000000
     1   0 1 0     -0.341835     -1.693530      1.351695      0.000000
     1   0 0 1     -0.000001     -0.000001     -0.000000      0.000000

     2   2 0 0    -22.664312   -108.564386   -106.567883    192.467957
     2   1 1 0      0.190773     -0.490310     -1.116714      1.797798
     2   1 0 1      0.000000     -0.000001     -0.000001      0.000002
     2   0 2 0    -25.680057   -100.813444    -88.914624    164.048011
     2   0 1 1     -0.000005     -0.000003     -0.000003      0.000001

  Root   1         a              0.106515045 a.u.                2.8984 eV
     Dipole Oscillator Strength                    0.0012053568
  Root   2         a              0.126001912 a.u.                3.4287 eV
     Dipole Oscillator Strength                    0.0000000000
  Root   3         a              0.143150007 a.u.                3.8953 eV
     Dipole Oscillator Strength                    0.0000119425
  Root   4         a              0.170052920 a.u.                4.6274 eV
     Dipole Oscillator Strength                    0.0000000000
  Root   5         a              0.171381060 a.u.                4.6635 eV
     Dipole Oscillator Strength                    0.0002474434
  Root   6         a              0.173896318 a.u.                4.7320 eV
     Dipole Oscillator Strength                    0.0037447963
  Root   7         a              0.177270421 a.u.                4.8238 eV
     Dipole Oscillator Strength                    0.0000129762
  Root   8         a              0.191921222 a.u.                5.2224 eV
     Dipole Oscillator Strength                    0.0006818497
  Root   9         a              0.201757040 a.u.                5.4901 eV
     Dipole Oscillator Strength                    0.0064475986
  Root  10         a              0.210811143 a.u.                5.7365 eV
     Dipole Oscillator Strength                    0.0074695488
  Root  11         a              0.216112810 a.u.                5.8807 eV
     Dipole Oscillator Strength                    0.0014850834
  Root  12         a              0.223136029 a.u.                6.0718 eV
     Dipole Oscillator Strength                    0.0002930911
  Root  13         a              0.224516246 a.u.                6.1094 eV
     Dipole Oscillator Strength                    0.0045621828
  Root  14         a              0.228345918 a.u.                6.2136 eV
     Dipole Oscillator Strength                    0.0093085856
  Root  15         a              0.228501536 a.u.                6.2178 eV
     Dipole Oscillator Strength                    0.0000000001
  Root  16         a              0.229728606 a.u.                6.2512 eV
     Dipole Oscillator Strength                    0.0010405619
  Root  17         a              0.229886389 a.u.                6.2555 eV
     Dipole Oscillator Strength                    0.0000000004
  Root  18         a              0.232029567 a.u.                6.3138 eV
     Dipole Oscillator Strength                    0.0227256873
  Root  19         a              0.235353176 a.u.                6.4043 eV
     Dipole Oscillator Strength                    0.0001757191
  Root  20         a              0.241817135 a.u.                6.5802 eV
     Dipole Oscillator Strength                    0.0000000001
  Root  21         a              0.242557806 a.u.                6.6003 eV
     Dipole Oscillator Strength                    0.0941421642
  Root  22         a              0.245233866 a.u.                6.6732 eV
     Dipole Oscillator Strength                    0.0012192020
  Root  23         a              0.246324234 a.u.                6.7028 eV
     Dipole Oscillator Strength                    0.0346369263
  Root  24         a              0.247278582 a.u.                6.7288 eV
     Dipole Oscillator Strength                    0.0005097339
  Root  25         a              0.248373165 a.u.                6.7586 eV
     Dipole Oscillator Strength                    0.0000000001
  Root  26         a              0.250990059 a.u.                6.8298 eV
     Dipole Oscillator Strength                    0.0432307657
  Root  27         a              0.252045847 a.u.                6.8585 eV
     Dipole Oscillator Strength                    0.0101283523
  Root  28         a              0.252532887 a.u.                6.8718 eV
     Dipole Oscillator Strength                    0.0000000013
  Root  29         a              0.253875620 a.u.                6.9083 eV
     Dipole Oscillator Strength                    0.0000000005
  Root  30         a              0.254671266 a.u.                6.9300 eV
     Dipole Oscillator Strength                    0.3881825887
  Root  31         a              0.255198454 a.u.                6.9443 eV
     Dipole Oscillator Strength                    0.0684864623
  Root  32         a              0.260540137 a.u.                7.0897 eV
     Dipole Oscillator Strength                    0.0015758112
  Root  33         a              0.265499867 a.u.                7.2246 eV
     Dipole Oscillator Strength                    0.0000000000
  Root  34         a              0.267130140 a.u.                7.2690 eV
     Dipole Oscillator Strength                    0.2543309230
  Root  35         a              0.270709582 a.u.                7.3664 eV
     Dipole Oscillator Strength                    0.0000158043
  Root  36         a              0.271169907 a.u.                7.3789 eV
     Dipole Oscillator Strength                    0.0004363966
  Root  37         a              0.271652981 a.u.                7.3921 eV
     Dipole Oscillator Strength                    0.0570079983
  Root  38         a              0.271707350 a.u.                7.3935 eV
     Dipole Oscillator Strength                    0.0001057889
  Root  39         a              0.272356240 a.u.                7.4112 eV
     Dipole Oscillator Strength                    0.0000000001
  Root  40         a              0.272631662 a.u.                7.4187 eV
     Dipole Oscillator Strength                    0.0003297356
 Total times  cpu:     2972.8s     wall:     3088.4s
