============================== echo of input deck ==============================
echo
start

title "None"

geometry
C    -0.08744508    1.38787631    0.00000005
C    -1.26730004    0.69218245   -0.00000002
C    -1.16662049   -0.70620771   -0.00000002
C     0.08285514   -1.31502573    0.00000004
C     1.24603415   -0.55419471   -0.00000001
C     1.17039852    0.84577354    0.00000005
H    -2.23263824    1.18052867   -0.00000010
H    -2.06926774   -1.30378230   -0.00000009
H     0.15085591   -2.39429045   -0.00000000
H     2.21654792   -1.03374724   -0.00000013
H     2.06680801    1.45142169   -0.00000010
symmetry c1
end

basis spherical
 * library "aug-cc-pvtz"
end

dft
 direct
 mult 2
 iterations 500
 xc b3lyp
end

tddft
 nroots 40
 notriplet
 algorithm 1
end
task tddft energy
================================================================================

 Output coordinates in angstroms (scale by  1.889725989 to convert to a.u.)

  No.       Tag          Charge          X              Y              Z
 ---- ---------------- ---------- -------------- -------------- --------------
    1 C                    6.0000    -0.08744115     1.38781399     0.00000005
    2 C                    6.0000    -1.26729611     0.69212013    -0.00000002
    3 C                    6.0000    -1.16661656    -0.70627003    -0.00000002
    4 C                    6.0000     0.08285907    -1.31508805     0.00000004
    5 C                    6.0000     1.24603808    -0.55425703    -0.00000001
    6 C                    6.0000     1.17040245     0.84571122     0.00000005
    7 H                    1.0000    -2.23263431     1.18046635    -0.00000010
    8 H                    1.0000    -2.06926381    -1.30384462    -0.00000009
    9 H                    1.0000     0.15085984    -2.39435277    -0.00000000
   10 H                    1.0000     2.21655185    -1.03380956    -0.00000013
   11 H                    1.0000     2.06681194     1.45135937    -0.00000010

         Total DFT energy =     -231.646306149666

                    DFT Final Alpha Molecular Orbital Analysis
                    ------------------------------------------

 Vector    1  Occ=1.000000D+00  E=-1.020498D+01

 Vector  305  Occ=0.000000D+00  E= 3.874375D+00

 Vector  306  Occ=0.000000D+00  E= 3.899548D+00

 Vector  307  Occ=0.000000D+00  E= 3.909866D+00

 Vector  308  Occ=0.000000D+00  E= 3.922242D+00

 Vector  309  Occ=0.000000D+00  E= 3.926728D+00

 Vector  310  Occ=0.000000D+00  E= 3.952173D+00

 Vector  311  Occ=0.000000D+00  E= 3.959219D+00

 Vector  312  Occ=0.000000D+00  E= 3.962550D+00

 Vector  313  Occ=0.000000D+00  E= 3.988568D+00

 Vector  314  Occ=0.000000D+00  E= 3.994687D+00

 Vector  315  Occ=0.000000D+00  E= 4.009987D+00

 Vector  316  Occ=0.000000D+00  E= 4.033628D+00

 Vector  317  Occ=0.000000D+00  E= 4.059983D+00

 Vector  318  Occ=0.000000D+00  E= 4.070952D+00

 Vector  319  Occ=0.000000D+00  E= 4.103586D+00

 Vector  320  Occ=0.000000D+00  E= 4.103843D+00

 Vector  321  Occ=0.000000D+00  E= 4.105761D+00

 Vector  322  Occ=0.000000D+00  E= 4.152167D+00

 Vector  323  Occ=0.000000D+00  E= 4.206649D+00

 Vector  324  Occ=0.000000D+00  E= 4.228649D+00

 Vector  325  Occ=0.000000D+00  E= 4.236944D+00

 Vector  326  Occ=0.000000D+00  E= 4.331029D+00

 Vector  327  Occ=0.000000D+00  E= 4.343519D+00

 Vector  328  Occ=0.000000D+00  E= 4.392732D+00

 Vector  329  Occ=0.000000D+00  E= 4.422864D+00

 Vector  330  Occ=0.000000D+00  E= 4.444340D+00

 Vector  331  Occ=0.000000D+00  E= 4.461523D+00

 Vector  332  Occ=0.000000D+00  E= 4.486817D+00

 Vector  333  Occ=0.000000D+00  E= 4.488502D+00

 Vector  334  Occ=0.000000D+00  E= 4.504210D+00

 Vector  335  Occ=0.000000D+00  E= 4.519947D+00

 Vector  336  Occ=0.000000D+00  E= 4.579396D+00

 Vector  337  Occ=0.000000D+00  E= 4.625893D+00

 Vector  338  Occ=0.000000D+00  E= 4.650659D+00

 Vector  339  Occ=0.000000D+00  E= 4.657727D+00

 Vector  340  Occ=0.000000D+00  E= 4.705831D+00

 Vector  341  Occ=0.000000D+00  E= 4.721838D+00

 Vector  342  Occ=0.000000D+00  E= 4.750719D+00

 Vector  343  Occ=0.000000D+00  E= 4.753725D+00

 Vector  344  Occ=0.000000D+00  E= 4.769175D+00

 Vector  345  Occ=0.000000D+00  E= 4.801889D+00

 Vector  346  Occ=0.000000D+00  E= 4.804706D+00

 Vector  347  Occ=0.000000D+00  E= 4.806176D+00

 Vector  348  Occ=0.000000D+00  E= 4.822016D+00

 Vector  349  Occ=0.000000D+00  E= 4.860943D+00

 Vector  350  Occ=0.000000D+00  E= 4.903075D+00

 Vector  351  Occ=0.000000D+00  E= 4.935722D+00

 Vector  352  Occ=0.000000D+00  E= 4.949114D+00

 Vector  353  Occ=0.000000D+00  E= 4.961353D+00

 Vector  354  Occ=0.000000D+00  E= 4.983202D+00

 Vector  355  Occ=0.000000D+00  E= 5.086512D+00

 Vector  356  Occ=0.000000D+00  E= 5.087825D+00

 Vector  357  Occ=0.000000D+00  E= 5.092204D+00

 Vector  358  Occ=0.000000D+00  E= 5.167120D+00

 Vector  359  Occ=0.000000D+00  E= 5.260173D+00

 Vector  360  Occ=0.000000D+00  E= 5.322573D+00

 Vector  361  Occ=0.000000D+00  E= 5.326207D+00

 Vector  362  Occ=0.000000D+00  E= 5.409564D+00

 Vector  363  Occ=0.000000D+00  E= 5.415119D+00

 Vector  364  Occ=0.000000D+00  E= 5.436818D+00

 Vector  365  Occ=0.000000D+00  E= 5.619142D+00

 Vector  366  Occ=0.000000D+00  E= 5.636177D+00

 Vector  367  Occ=0.000000D+00  E= 5.682074D+00

 Vector  368  Occ=0.000000D+00  E= 5.749438D+00

 Vector  369  Occ=0.000000D+00  E= 5.803814D+00

 Vector  370  Occ=0.000000D+00  E= 5.921529D+00

 Vector  371  Occ=0.000000D+00  E= 5.930365D+00

 Vector  372  Occ=0.000000D+00  E= 6.044602D+00

 Vector  373  Occ=0.000000D+00  E= 6.167904D+00

 Vector  374  Occ=0.000000D+00  E= 6.251282D+00

 Vector  375  Occ=0.000000D+00  E= 6.402230D+00

 Vector  376  Occ=0.000000D+00  E= 6.452826D+00

 Vector  377  Occ=0.000000D+00  E= 6.604798D+00

 Vector  378  Occ=0.000000D+00  E= 6.865831D+00

 Vector  379  Occ=0.000000D+00  E= 1.504879D+01

 Vector  380  Occ=0.000000D+00  E= 1.507756D+01

 Vector  381  Occ=0.000000D+00  E= 1.597193D+01

 Vector  382  Occ=0.000000D+00  E= 1.763893D+01

 Vector  383  Occ=0.000000D+00  E= 1.801923D+01

 Vector  384  Occ=0.000000D+00  E= 1.806217D+01

     Multipole analysis of the density
     ---------------------------------

     L   x y z        total         alpha         beta         nuclear
     -   - - -        -----         -----         ----         -------
     0   0 0 0     -0.000000    -21.000000    -20.000000     41.000000

     1   1 0 0      0.021614      0.106619     -0.085004     -0.000000
     1   0 1 0     -0.341263     -1.691299      1.350036     -0.000000
     1   0 0 1     -0.000001     -0.000001     -0.000000      0.000000

     2   2 0 0    -22.648346   -108.557931   -106.563886    192.473471
     2   1 1 0      0.192702     -0.489656     -1.116213      1.798570
     2   1 0 1      0.000000     -0.000001     -0.000001      0.000002
     2   0 2 0    -25.694633   -100.817245    -88.918527    164.041140
     2   0 1 1     -0.000005     -0.000004     -0.000003      0.000001

  Root   1         a              0.106925848 a.u.                2.9096 eV
     Dipole Oscillator Strength                    0.0012104517
  Root   2         a              0.125915225 a.u.                3.4263 eV
     Dipole Oscillator Strength                    0.0000000000
  Root   3         a              0.142941323 a.u.                3.8896 eV
     Dipole Oscillator Strength                    0.0000117442
  Root   4         a              0.169295683 a.u.                4.6068 eV
     Dipole Oscillator Strength                    0.0000000000
  Root   5         a              0.171287956 a.u.                4.6610 eV
     Dipole Oscillator Strength                    0.0002491703
  Root   6         a              0.173870486 a.u.                4.7313 eV
     Dipole Oscillator Strength                    0.0037574443
  Root   7         a              0.177564098 a.u.                4.8318 eV
     Dipole Oscillator Strength                    0.0000146495
  Root   8         a              0.191992223 a.u.                5.2244 eV
     Dipole Oscillator Strength                    0.0006776588
  Root   9         a              0.201775799 a.u.                5.4906 eV
     Dipole Oscillator Strength                    0.0064680775
  Root  10         a              0.210428967 a.u.                5.7261 eV
     Dipole Oscillator Strength                    0.0073900593
  Root  11         a              0.216681728 a.u.                5.8962 eV
     Dipole Oscillator Strength                    0.0016090492
  Root  12         a              0.223451940 a.u.                6.0804 eV
     Dipole Oscillator Strength                    0.0002637487
  Root  13         a              0.224417045 a.u.                6.1067 eV
     Dipole Oscillator Strength                    0.0064214756
  Root  14         a              0.227962738 a.u.                6.2032 eV
     Dipole Oscillator Strength                    0.0093630576
  Root  15         a              0.228170829 a.u.                6.2088 eV
     Dipole Oscillator Strength                    0.0000000001
  Root  16         a              0.229558436 a.u.                6.2466 eV
     Dipole Oscillator Strength                    0.0000000001
  Root  17         a              0.230062045 a.u.                6.2603 eV
     Dipole Oscillator Strength                    0.0009739123
  Root  18         a              0.231662813 a.u.                6.3039 eV
     Dipole Oscillator Strength                    0.0239331679
  Root  19         a              0.235666759 a.u.                6.4128 eV
     Dipole Oscillator Strength                    0.0001603666
  Root  20         a              0.242116141 a.u.                6.5883 eV
     Dipole Oscillator Strength                    0.0000000019
  Root  21         a              0.242260393 a.u.                6.5922 eV
     Dipole Oscillator Strength                    0.0885137986
  Root  22         a              0.245044093 a.u.                6.6680 eV
     Dipole Oscillator Strength                    0.0001851225
  Root  23         a              0.246140347 a.u.                6.6978 eV
     Dipole Oscillator Strength                    0.0356793809
  Root  24         a              0.247347379 a.u.                6.7307 eV
     Dipole Oscillator Strength                    0.0004084615
  Root  25         a              0.248649422 a.u.                6.7661 eV
     Dipole Oscillator Strength                    0.0000000001
  Root  26         a              0.250679356 a.u.                6.8213 eV
     Dipole Oscillator Strength                    0.0343624369
  Root  27         a              0.252282346 a.u.                6.8650 eV
     Dipole Oscillator Strength                    0.0000000609
  Root  28         a              0.252382068 a.u.                6.8677 eV
     Dipole Oscillator Strength                    0.0104117057
  Root  29         a              0.253585509 a.u.                6.9004 eV
     Dipole Oscillator Strength                    0.0000000004
  Root  30         a              0.254623765 a.u.                6.9287 eV
     Dipole Oscillator Strength                    0.3963231424
  Root  31         a              0.254824031 a.u.                6.9341 eV
     Dipole Oscillator Strength                    0.0658010434
  Root  32         a              0.260189872 a.u.                7.0801 eV
     Dipole Oscillator Strength                    0.0015454775
  Root  33         a              0.265830621 a.u.                7.2336 eV
     Dipole Oscillator Strength                    0.0000000000
  Root  34         a              0.267185897 a.u.                7.2705 eV
     Dipole Oscillator Strength                    0.2448519710
  Root  35         a              0.270421328 a.u.                7.3585 eV
     Dipole Oscillator Strength                    0.0000142380
  Root  36         a              0.270826010 a.u.                7.3696 eV
     Dipole Oscillator Strength                    0.0004469278
  Root  37         a              0.271414391 a.u.                7.3856 eV
     Dipole Oscillator Strength                    0.0000819956
  Root  38         a              0.271454345 a.u.                7.3867 eV
     Dipole Oscillator Strength                    0.0813683703
  Root  39         a              0.272705626 a.u.                7.4207 eV
     Dipole Oscillator Strength                    0.0000000000
  Root  40         a              0.272904173 a.u.                7.4261 eV
     Dipole Oscillator Strength                    0.0003316681
 Total times  cpu:     2902.0s     wall:     2991.3s
