============================== echo of input deck ==============================
echo
start

title "None"

geometry
C    -0.08747224    1.38830409    0.00002000
C    -1.26735482    0.69112092    0.00015076
C    -1.16733630   -0.70470852   -0.00045151
C     0.08291598   -1.31598916    0.00058717
C     1.24655610   -0.55261762   -0.00045138
C     1.17058620    0.84472727    0.00015071
H    -2.23189055    1.18090100   -0.00097783
H    -2.06748412   -1.30603725    0.00263374
H     0.15092404   -2.39537432   -0.00338001
H     2.21506130   -1.03620839    0.00263297
H     2.06601969    1.45169726   -0.00097686
symmetry c1
end

basis spherical
 * library "aug-cc-pvtz"
end

dft
 direct
 mult 2
 iterations 500
 xc b3lyp
end

tddft
 nroots 40
 notriplet
 algorithm 1
end
task tddft energy
================================================================================

 Output coordinates in angstroms (scale by  1.889725989 to convert to a.u.)

  No.       Tag          Charge          X              Y              Z
 ---- ---------------- ---------- -------------- -------------- --------------
    1 C                    6.0000    -0.08747224     1.38830409     0.00002082
    2 C                    6.0000    -1.26735482     0.69112092     0.00015158
    3 C                    6.0000    -1.16733630    -0.70470852    -0.00045069
    4 C                    6.0000     0.08291598    -1.31598916     0.00058799
    5 C                    6.0000     1.24655610    -0.55261762    -0.00045056
    6 C                    6.0000     1.17058620     0.84472727     0.00015153
    7 H                    1.0000    -2.23189055     1.18090100    -0.00097701
    8 H                    1.0000    -2.06748412    -1.30603725     0.00263456
    9 H                    1.0000     0.15092404    -2.39537432    -0.00337919
   10 H                    1.0000     2.21506130    -1.03620839     0.00263379
   11 H                    1.0000     2.06601969     1.45169726    -0.00097604

         Total DFT energy =     -231.646324867355

                    DFT Final Alpha Molecular Orbital Analysis
                    ------------------------------------------

 Vector    1  Occ=1.000000D+00  E=-1.020525D+01

 Vector  305  Occ=0.000000D+00  E= 3.874526D+00

 Vector  306  Occ=0.000000D+00  E= 3.900079D+00

 Vector  307  Occ=0.000000D+00  E= 3.910084D+00

 Vector  308  Occ=0.000000D+00  E= 3.921936D+00

 Vector  309  Occ=0.000000D+00  E= 3.926211D+00

 Vector  310  Occ=0.000000D+00  E= 3.952284D+00

 Vector  311  Occ=0.000000D+00  E= 3.958783D+00

 Vector  312  Occ=0.000000D+00  E= 3.962917D+00

 Vector  313  Occ=0.000000D+00  E= 3.989447D+00

 Vector  314  Occ=0.000000D+00  E= 3.994146D+00

 Vector  315  Occ=0.000000D+00  E= 4.010693D+00

 Vector  316  Occ=0.000000D+00  E= 4.033080D+00

 Vector  317  Occ=0.000000D+00  E= 4.060704D+00

 Vector  318  Occ=0.000000D+00  E= 4.069995D+00

 Vector  319  Occ=0.000000D+00  E= 4.102923D+00

 Vector  320  Occ=0.000000D+00  E= 4.103476D+00

 Vector  321  Occ=0.000000D+00  E= 4.105883D+00

 Vector  322  Occ=0.000000D+00  E= 4.154006D+00

 Vector  323  Occ=0.000000D+00  E= 4.206754D+00

 Vector  324  Occ=0.000000D+00  E= 4.230586D+00

 Vector  325  Occ=0.000000D+00  E= 4.236967D+00

 Vector  326  Occ=0.000000D+00  E= 4.330825D+00

 Vector  327  Occ=0.000000D+00  E= 4.345458D+00

 Vector  328  Occ=0.000000D+00  E= 4.390511D+00

 Vector  329  Occ=0.000000D+00  E= 4.420589D+00

 Vector  330  Occ=0.000000D+00  E= 4.444503D+00

 Vector  331  Occ=0.000000D+00  E= 4.462608D+00

 Vector  332  Occ=0.000000D+00  E= 4.485985D+00

 Vector  333  Occ=0.000000D+00  E= 4.490571D+00

 Vector  334  Occ=0.000000D+00  E= 4.506292D+00

 Vector  335  Occ=0.000000D+00  E= 4.520648D+00

 Vector  336  Occ=0.000000D+00  E= 4.575935D+00

 Vector  337  Occ=0.000000D+00  E= 4.627121D+00

 Vector  338  Occ=0.000000D+00  E= 4.651232D+00

 Vector  339  Occ=0.000000D+00  E= 4.658435D+00

 Vector  340  Occ=0.000000D+00  E= 4.705189D+00

 Vector  341  Occ=0.000000D+00  E= 4.720342D+00

 Vector  342  Occ=0.000000D+00  E= 4.750746D+00

 Vector  343  Occ=0.000000D+00  E= 4.754486D+00

 Vector  344  Occ=0.000000D+00  E= 4.767732D+00

 Vector  345  Occ=0.000000D+00  E= 4.802303D+00

 Vector  346  Occ=0.000000D+00  E= 4.805056D+00

 Vector  347  Occ=0.000000D+00  E= 4.807690D+00

 Vector  348  Occ=0.000000D+00  E= 4.822854D+00

 Vector  349  Occ=0.000000D+00  E= 4.857671D+00

 Vector  350  Occ=0.000000D+00  E= 4.903575D+00

 Vector  351  Occ=0.000000D+00  E= 4.933795D+00

 Vector  352  Occ=0.000000D+00  E= 4.949665D+00

 Vector  353  Occ=0.000000D+00  E= 4.959786D+00

 Vector  354  Occ=0.000000D+00  E= 4.982538D+00

 Vector  355  Occ=0.000000D+00  E= 5.085754D+00

 Vector  356  Occ=0.000000D+00  E= 5.088855D+00

 Vector  357  Occ=0.000000D+00  E= 5.093063D+00

 Vector  358  Occ=0.000000D+00  E= 5.166988D+00

 Vector  359  Occ=0.000000D+00  E= 5.260329D+00

 Vector  360  Occ=0.000000D+00  E= 5.323288D+00

 Vector  361  Occ=0.000000D+00  E= 5.323592D+00

 Vector  362  Occ=0.000000D+00  E= 5.410780D+00

 Vector  363  Occ=0.000000D+00  E= 5.415661D+00

 Vector  364  Occ=0.000000D+00  E= 5.436355D+00

 Vector  365  Occ=0.000000D+00  E= 5.620514D+00

 Vector  366  Occ=0.000000D+00  E= 5.635036D+00

 Vector  367  Occ=0.000000D+00  E= 5.682463D+00

 Vector  368  Occ=0.000000D+00  E= 5.749030D+00

 Vector  369  Occ=0.000000D+00  E= 5.802508D+00

 Vector  370  Occ=0.000000D+00  E= 5.919751D+00

 Vector  371  Occ=0.000000D+00  E= 5.930042D+00

 Vector  372  Occ=0.000000D+00  E= 6.047823D+00

 Vector  373  Occ=0.000000D+00  E= 6.165663D+00

 Vector  374  Occ=0.000000D+00  E= 6.253107D+00

 Vector  375  Occ=0.000000D+00  E= 6.406651D+00

 Vector  376  Occ=0.000000D+00  E= 6.449946D+00

 Vector  377  Occ=0.000000D+00  E= 6.604515D+00

 Vector  378  Occ=0.000000D+00  E= 6.864712D+00

 Vector  379  Occ=0.000000D+00  E= 1.504890D+01

 Vector  380  Occ=0.000000D+00  E= 1.506639D+01

 Vector  381  Occ=0.000000D+00  E= 1.597873D+01

 Vector  382  Occ=0.000000D+00  E= 1.764785D+01

 Vector  383  Occ=0.000000D+00  E= 1.800504D+01

 Vector  384  Occ=0.000000D+00  E= 1.806306D+01

     Multipole analysis of the density
     ---------------------------------

     L   x y z        total         alpha         beta         nuclear
     -   - - -        -----         -----         ----         -------
     0   0 0 0     -0.000000    -21.000000    -20.000000     41.000000

     1   1 0 0      0.021580      0.106833     -0.085252     -0.000000
     1   0 1 0     -0.340544     -1.694596      1.354052      0.000000
     1   0 0 1     -0.000145      0.000184     -0.000329     -0.000000

     2   2 0 0    -22.668320   -108.564874   -106.579940    192.476493
     2   1 1 0      0.190315     -0.490518     -1.118462      1.799295
     2   1 0 1      0.000040     -0.000038      0.000003      0.000075
     2   0 2 0    -25.676900   -100.810467    -88.898992    164.032559
     2   0 1 1     -0.000652      0.000564     -0.000075     -0.001141

  Root   1         a              0.106293819 a.u.                2.8924 eV
     Dipole Oscillator Strength                    0.0012113124
  Root   2         a              0.126063477 a.u.                3.4304 eV
     Dipole Oscillator Strength                    0.0000000003
  Root   3         a              0.143225635 a.u.                3.8974 eV
     Dipole Oscillator Strength                    0.0000121774
  Root   4         a              0.170396450 a.u.                4.6367 eV
     Dipole Oscillator Strength                    0.0000001766
  Root   5         a              0.171412101 a.u.                4.6644 eV
     Dipole Oscillator Strength                    0.0002488743
  Root   6         a              0.173941071 a.u.                4.7332 eV
     Dipole Oscillator Strength                    0.0037548280
  Root   7         a              0.177209303 a.u.                4.8221 eV
     Dipole Oscillator Strength                    0.0000135559
  Root   8         a              0.191912044 a.u.                5.2222 eV
     Dipole Oscillator Strength                    0.0006901276
  Root   9         a              0.201773350 a.u.                5.4905 eV
     Dipole Oscillator Strength                    0.0064709045
  Root  10         a              0.211026975 a.u.                5.7423 eV
     Dipole Oscillator Strength                    0.0075580996
  Root  11         a              0.215668240 a.u.                5.8686 eV
     Dipole Oscillator Strength                    0.0015008025
  Root  12         a              0.223038209 a.u.                6.0692 eV
     Dipole Oscillator Strength                    0.0002776326
  Root  13         a              0.224548979 a.u.                6.1103 eV
     Dipole Oscillator Strength                    0.0041244125
  Root  14         a              0.228570167 a.u.                6.2197 eV
     Dipole Oscillator Strength                    0.0088642066
  Root  15         a              0.228594184 a.u.                6.2204 eV
     Dipole Oscillator Strength                    0.0003509707
  Root  16         a              0.229659371 a.u.                6.2494 eV
     Dipole Oscillator Strength                    0.0009974616
  Root  17         a              0.229981656 a.u.                6.2581 eV
     Dipole Oscillator Strength                    0.0000000041
  Root  18         a              0.232246072 a.u.                6.3197 eV
     Dipole Oscillator Strength                    0.0225447159
  Root  19         a              0.235374100 a.u.                6.4049 eV
     Dipole Oscillator Strength                    0.0001887008
  Root  20         a              0.241719559 a.u.                6.5775 eV
     Dipole Oscillator Strength                    0.0000002220
  Root  21         a              0.242600941 a.u.                6.6015 eV
     Dipole Oscillator Strength                    0.0951395970
  Root  22         a              0.245275111 a.u.                6.6743 eV
     Dipole Oscillator Strength                    0.0018060492
  Root  23         a              0.246368378 a.u.                6.7040 eV
     Dipole Oscillator Strength                    0.0333442778
  Root  24         a              0.247300694 a.u.                6.7294 eV
     Dipole Oscillator Strength                    0.0013502746
  Root  25         a              0.248314256 a.u.                6.7570 eV
     Dipole Oscillator Strength                    0.0000001860
  Root  26         a              0.251184636 a.u.                6.8351 eV
     Dipole Oscillator Strength                    0.0473241477
  Root  27         a              0.251973626 a.u.                6.8566 eV
     Dipole Oscillator Strength                    0.0100873864
  Root  28         a              0.252621275 a.u.                6.8742 eV
     Dipole Oscillator Strength                    0.0000000708
  Root  29         a              0.253988627 a.u.                6.9114 eV
     Dipole Oscillator Strength                    0.0000203750
  Root  30         a              0.254755760 a.u.                6.9323 eV
     Dipole Oscillator Strength                    0.3852871716
  Root  31         a              0.255405182 a.u.                6.9499 eV
     Dipole Oscillator Strength                    0.0691986540
  Root  32         a              0.260750933 a.u.                7.0954 eV
     Dipole Oscillator Strength                    0.0016480609
  Root  33         a              0.265400885 a.u.                7.2219 eV
     Dipole Oscillator Strength                    0.0000002916
  Root  34         a              0.267189007 a.u.                7.2706 eV
     Dipole Oscillator Strength                    0.2578091252
  Root  35         a              0.270808852 a.u.                7.3691 eV
     Dipole Oscillator Strength                    0.0000181754
  Root  36         a              0.271250878 a.u.                7.3811 eV
     Dipole Oscillator Strength                    0.0004300017
  Root  37         a              0.271750534 a.u.                7.3947 eV
     Dipole Oscillator Strength                    0.0461673388
  Root  38         a              0.271808571 a.u.                7.3963 eV
     Dipole Oscillator Strength                    0.0009979278
  Root  39         a              0.272285594 a.u.                7.4093 eV
     Dipole Oscillator Strength                    0.0000006752
  Root  40         a              0.272506531 a.u.                7.4153 eV
     Dipole Oscillator Strength                    0.0015587141
 Total times  cpu:     3928.5s     wall:     4020.8s
