============================== echo of input deck ==============================
echo
start

title "None"

geometry
C    -0.08555193    1.38842507    0.00000005
C    -1.26851753    0.69047249   -0.00000002
C    -1.16621494   -0.70510437   -0.00000002
C     0.08098063   -1.31611122    0.00000004
C     1.24761891   -0.55208400   -0.00000001
C     1.16935125    0.84522450    0.00000005
H    -2.23197984    1.18242841   -0.00000010
H    -2.06742088   -1.30468964   -0.00000009
H     0.15333648   -2.39522245   -0.00000000
H     2.21529293   -1.03753814   -0.00000013
H     2.06612282    1.45017065   -0.00000010
symmetry c1
end

basis spherical
 * library "aug-cc-pvtz"
end

dft
 direct
 mult 2
 iterations 500
 xc b3lyp
end

tddft
 nroots 40
 notriplet
 algorithm 1
end
task tddft energy
================================================================================

 Output coordinates in angstroms (scale by  1.889725989 to convert to a.u.)

  No.       Tag          Charge          X              Y              Z
 ---- ---------------- ---------- -------------- -------------- --------------
    1 C                    6.0000    -0.08558485     1.38842303     0.00000005
    2 C                    6.0000    -1.26855045     0.69047045    -0.00000002
    3 C                    6.0000    -1.16624786    -0.70510641    -0.00000002
    4 C                    6.0000     0.08094771    -1.31611326     0.00000004
    5 C                    6.0000     1.24758599    -0.55208604    -0.00000001
    6 C                    6.0000     1.16931833     0.84522246     0.00000005
    7 H                    1.0000    -2.23201276     1.18242637    -0.00000010
    8 H                    1.0000    -2.06745380    -1.30469168    -0.00000009
    9 H                    1.0000     0.15330356    -2.39522449    -0.00000000
   10 H                    1.0000     2.21526001    -1.03754018    -0.00000013
   11 H                    1.0000     2.06608990     1.45016861    -0.00000010

         Total DFT energy =     -231.646295146757

                    DFT Final Alpha Molecular Orbital Analysis
                    ------------------------------------------

 Vector    1  Occ=1.000000D+00  E=-1.020525D+01

 Vector  305  Occ=0.000000D+00  E= 3.874578D+00

 Vector  306  Occ=0.000000D+00  E= 3.899963D+00

 Vector  307  Occ=0.000000D+00  E= 3.910061D+00

 Vector  308  Occ=0.000000D+00  E= 3.921989D+00

 Vector  309  Occ=0.000000D+00  E= 3.926349D+00

 Vector  310  Occ=0.000000D+00  E= 3.952385D+00

 Vector  311  Occ=0.000000D+00  E= 3.958747D+00

 Vector  312  Occ=0.000000D+00  E= 3.962781D+00

 Vector  313  Occ=0.000000D+00  E= 3.989477D+00

 Vector  314  Occ=0.000000D+00  E= 3.994125D+00

 Vector  315  Occ=0.000000D+00  E= 4.010685D+00

 Vector  316  Occ=0.000000D+00  E= 4.033068D+00

 Vector  317  Occ=0.000000D+00  E= 4.060767D+00

 Vector  318  Occ=0.000000D+00  E= 4.069963D+00

 Vector  319  Occ=0.000000D+00  E= 4.101743D+00

 Vector  320  Occ=0.000000D+00  E= 4.104634D+00

 Vector  321  Occ=0.000000D+00  E= 4.105853D+00

 Vector  322  Occ=0.000000D+00  E= 4.154037D+00

 Vector  323  Occ=0.000000D+00  E= 4.206750D+00

 Vector  324  Occ=0.000000D+00  E= 4.230478D+00

 Vector  325  Occ=0.000000D+00  E= 4.237014D+00

 Vector  326  Occ=0.000000D+00  E= 4.330878D+00

 Vector  327  Occ=0.000000D+00  E= 4.345407D+00

 Vector  328  Occ=0.000000D+00  E= 4.390551D+00

 Vector  329  Occ=0.000000D+00  E= 4.420537D+00

 Vector  330  Occ=0.000000D+00  E= 4.444606D+00

 Vector  331  Occ=0.000000D+00  E= 4.462575D+00

 Vector  332  Occ=0.000000D+00  E= 4.484769D+00

 Vector  333  Occ=0.000000D+00  E= 4.491735D+00

 Vector  334  Occ=0.000000D+00  E= 4.506377D+00

 Vector  335  Occ=0.000000D+00  E= 4.520589D+00

 Vector  336  Occ=0.000000D+00  E= 4.576070D+00

 Vector  337  Occ=0.000000D+00  E= 4.627151D+00

 Vector  338  Occ=0.000000D+00  E= 4.651184D+00

 Vector  339  Occ=0.000000D+00  E= 4.658330D+00

 Vector  340  Occ=0.000000D+00  E= 4.705029D+00

 Vector  341  Occ=0.000000D+00  E= 4.720323D+00

 Vector  342  Occ=0.000000D+00  E= 4.750776D+00

 Vector  343  Occ=0.000000D+00  E= 4.754721D+00

 Vector  344  Occ=0.000000D+00  E= 4.767599D+00

 Vector  345  Occ=0.000000D+00  E= 4.802335D+00

 Vector  346  Occ=0.000000D+00  E= 4.805078D+00

 Vector  347  Occ=0.000000D+00  E= 4.807839D+00

 Vector  348  Occ=0.000000D+00  E= 4.822864D+00

 Vector  349  Occ=0.000000D+00  E= 4.857726D+00

 Vector  350  Occ=0.000000D+00  E= 4.903527D+00

 Vector  351  Occ=0.000000D+00  E= 4.933897D+00

 Vector  352  Occ=0.000000D+00  E= 4.949178D+00

 Vector  353  Occ=0.000000D+00  E= 4.960249D+00

 Vector  354  Occ=0.000000D+00  E= 4.982694D+00

 Vector  355  Occ=0.000000D+00  E= 5.084966D+00

 Vector  356  Occ=0.000000D+00  E= 5.089622D+00

 Vector  357  Occ=0.000000D+00  E= 5.093077D+00

 Vector  358  Occ=0.000000D+00  E= 5.167023D+00

 Vector  359  Occ=0.000000D+00  E= 5.260272D+00

 Vector  360  Occ=0.000000D+00  E= 5.322835D+00

 Vector  361  Occ=0.000000D+00  E= 5.324095D+00

 Vector  362  Occ=0.000000D+00  E= 5.410636D+00

 Vector  363  Occ=0.000000D+00  E= 5.415898D+00

 Vector  364  Occ=0.000000D+00  E= 5.436349D+00

 Vector  365  Occ=0.000000D+00  E= 5.620436D+00

 Vector  366  Occ=0.000000D+00  E= 5.635028D+00

 Vector  367  Occ=0.000000D+00  E= 5.682405D+00

 Vector  368  Occ=0.000000D+00  E= 5.749063D+00

 Vector  369  Occ=0.000000D+00  E= 5.802476D+00

 Vector  370  Occ=0.000000D+00  E= 5.919781D+00

 Vector  371  Occ=0.000000D+00  E= 5.930069D+00

 Vector  372  Occ=0.000000D+00  E= 6.047924D+00

 Vector  373  Occ=0.000000D+00  E= 6.165695D+00

 Vector  374  Occ=0.000000D+00  E= 6.253128D+00

 Vector  375  Occ=0.000000D+00  E= 6.406625D+00

 Vector  376  Occ=0.000000D+00  E= 6.449886D+00

 Vector  377  Occ=0.000000D+00  E= 6.604621D+00

 Vector  378  Occ=0.000000D+00  E= 6.864777D+00

 Vector  379  Occ=0.000000D+00  E= 1.502494D+01

 Vector  380  Occ=0.000000D+00  E= 1.509197D+01

 Vector  381  Occ=0.000000D+00  E= 1.597880D+01

 Vector  382  Occ=0.000000D+00  E= 1.764766D+01

 Vector  383  Occ=0.000000D+00  E= 1.800484D+01

 Vector  384  Occ=0.000000D+00  E= 1.806363D+01

     Multipole analysis of the density
     ---------------------------------

     L   x y z        total         alpha         beta         nuclear
     -   - - -        -----         -----         ----         -------
     0   0 0 0     -0.000000    -21.000000    -20.000000     41.000000

     1   1 0 0      0.022525      0.102496     -0.079971     -0.000000
     1   0 1 0     -0.340522     -1.694865      1.354343     -0.000000
     1   0 0 1     -0.000001     -0.000001     -0.000000      0.000000

     2   2 0 0    -22.666364   -108.560886   -106.578343    192.472864
     2   1 1 0      0.175594     -0.523784     -1.130875      1.830254
     2   1 0 1      0.000000     -0.000001     -0.000001      0.000002
     2   0 2 0    -25.678811   -100.814659    -88.900684    164.036533
     2   0 1 1     -0.000005     -0.000004     -0.000003      0.000001

  Root   1         a              0.106283365 a.u.                2.8921 eV
     Dipole Oscillator Strength                    0.0012103951
  Root   2         a              0.126075562 a.u.                3.4307 eV
     Dipole Oscillator Strength                    0.0000007204
  Root   3         a              0.143172870 a.u.                3.8959 eV
     Dipole Oscillator Strength                    0.0000121658
  Root   4         a              0.170271940 a.u.                4.6333 eV
     Dipole Oscillator Strength                    0.0001115826
  Root   5         a              0.171456499 a.u.                4.6656 eV
     Dipole Oscillator Strength                    0.0002501109
  Root   6         a              0.174062445 a.u.                4.7365 eV
     Dipole Oscillator Strength                    0.0036440805
  Root   7         a              0.177216329 a.u.                4.8223 eV
     Dipole Oscillator Strength                    0.0000132630
  Root   8         a              0.191921269 a.u.                5.2224 eV
     Dipole Oscillator Strength                    0.0006892540
  Root   9         a              0.201776127 a.u.                5.4906 eV
     Dipole Oscillator Strength                    0.0064853075
  Root  10         a              0.211022491 a.u.                5.7422 eV
     Dipole Oscillator Strength                    0.0075542792
  Root  11         a              0.215645155 a.u.                5.8680 eV
     Dipole Oscillator Strength                    0.0015172265
  Root  12         a              0.222991306 a.u.                6.0679 eV
     Dipole Oscillator Strength                    0.0002748713
  Root  13         a              0.224521656 a.u.                6.1095 eV
     Dipole Oscillator Strength                    0.0045683366
  Root  14         a              0.228422234 a.u.                6.2157 eV
     Dipole Oscillator Strength                    0.0001540875
  Root  15         a              0.228567330 a.u.                6.2196 eV
     Dipole Oscillator Strength                    0.0092685838
  Root  16         a              0.229631616 a.u.                6.2486 eV
     Dipole Oscillator Strength                    0.0004914383
  Root  17         a              0.230229899 a.u.                6.2649 eV
     Dipole Oscillator Strength                    0.0003530442
  Root  18         a              0.232240842 a.u.                6.3196 eV
     Dipole Oscillator Strength                    0.0225896829
  Root  19         a              0.235378463 a.u.                6.4050 eV
     Dipole Oscillator Strength                    0.0001677014
  Root  20         a              0.241654252 a.u.                6.5757 eV
     Dipole Oscillator Strength                    0.0002077521
  Root  21         a              0.242610391 a.u.                6.6018 eV
     Dipole Oscillator Strength                    0.0952038611
  Root  22         a              0.245257066 a.u.                6.6738 eV
     Dipole Oscillator Strength                    0.0009537313
  Root  23         a              0.246279854 a.u.                6.7016 eV
     Dipole Oscillator Strength                    0.0326847049
  Root  24         a              0.247301645 a.u.                6.7294 eV
     Dipole Oscillator Strength                    0.0014316858
  Root  25         a              0.248446060 a.u.                6.7606 eV
     Dipole Oscillator Strength                    0.0010853548
  Root  26         a              0.251186763 a.u.                6.8351 eV
     Dipole Oscillator Strength                    0.0462857911
  Root  27         a              0.251659685 a.u.                6.8480 eV
     Dipole Oscillator Strength                    0.0078783503
  Root  28         a              0.252938134 a.u.                6.8828 eV
     Dipole Oscillator Strength                    0.0022559301
  Root  29         a              0.254031149 a.u.                6.9125 eV
     Dipole Oscillator Strength                    0.0000826161
  Root  30         a              0.254778918 a.u.                6.9329 eV
     Dipole Oscillator Strength                    0.3857180712
  Root  31         a              0.255402664 a.u.                6.9499 eV
     Dipole Oscillator Strength                    0.0691415428
  Root  32         a              0.260749191 a.u.                7.0953 eV
     Dipole Oscillator Strength                    0.0015869243
  Root  33         a              0.265349829 a.u.                7.2205 eV
     Dipole Oscillator Strength                    0.0000003353
  Root  34         a              0.267183158 a.u.                7.2704 eV
     Dipole Oscillator Strength                    0.2576425067
  Root  35         a              0.270688640 a.u.                7.3658 eV
     Dipole Oscillator Strength                    0.0000244127
  Root  36         a              0.271208447 a.u.                7.3800 eV
     Dipole Oscillator Strength                    0.0004487414
  Root  37         a              0.271712933 a.u.                7.3937 eV
     Dipole Oscillator Strength                    0.0000729546
  Root  38         a              0.271741952 a.u.                7.3945 eV
     Dipole Oscillator Strength                    0.0466531644
  Root  39         a              0.272441766 a.u.                7.4135 eV
     Dipole Oscillator Strength                    0.0003300078
  Root  40         a              0.272578485 a.u.                7.4172 eV
     Dipole Oscillator Strength                    0.0000095739
 Total times  cpu:     2923.4s     wall:     3017.3s
