============================== echo of input deck ==============================
echo
start

title "None"

geometry
C    -0.08747224    1.38830409   -0.00051605
C    -1.26735482    0.69112092    0.00045781
C    -1.16733630   -0.70470852    0.00004107
C     0.08291598   -1.31598916    0.00046529
C     1.24655610   -0.55261762    0.00004108
C     1.17058620    0.84472727    0.00045795
H    -2.23189055    1.18090100   -0.00159894
H    -2.06748412   -1.30603725   -0.00289007
H     0.15092404   -2.39537432   -0.00229763
H     2.21506130   -1.03620839   -0.00289042
H     2.06601969    1.45169726   -0.00159894
symmetry c1
end

basis spherical
 * library "aug-cc-pvtz"
end

dft
 direct
 mult 2
 iterations 500
 xc b3lyp
end

tddft
 nroots 40
 notriplet
 algorithm 1
end
task tddft energy
================================================================================

 Output coordinates in angstroms (scale by  1.889725989 to convert to a.u.)

  No.       Tag          Charge          X              Y              Z
 ---- ---------------- ---------- -------------- -------------- --------------
    1 C                    6.0000    -0.08747224     1.38830409    -0.00037963
    2 C                    6.0000    -1.26735482     0.69112092     0.00059423
    3 C                    6.0000    -1.16733630    -0.70470852     0.00017749
    4 C                    6.0000     0.08291598    -1.31598916     0.00060171
    5 C                    6.0000     1.24655610    -0.55261762     0.00017750
    6 C                    6.0000     1.17058620     0.84472727     0.00059437
    7 H                    1.0000    -2.23189055     1.18090100    -0.00146252
    8 H                    1.0000    -2.06748412    -1.30603725    -0.00275365
    9 H                    1.0000     0.15092404    -2.39537432    -0.00216121
   10 H                    1.0000     2.21506130    -1.03620839    -0.00275400
   11 H                    1.0000     2.06601969     1.45169726    -0.00146252

         Total DFT energy =     -231.646326040591

                    DFT Final Alpha Molecular Orbital Analysis
                    ------------------------------------------

 Vector    1  Occ=1.000000D+00  E=-1.020526D+01

 Vector  305  Occ=0.000000D+00  E= 3.874525D+00

 Vector  306  Occ=0.000000D+00  E= 3.900122D+00

 Vector  307  Occ=0.000000D+00  E= 3.910054D+00

 Vector  308  Occ=0.000000D+00  E= 3.921987D+00

 Vector  309  Occ=0.000000D+00  E= 3.926212D+00

 Vector  310  Occ=0.000000D+00  E= 3.952386D+00

 Vector  311  Occ=0.000000D+00  E= 3.958697D+00

 Vector  312  Occ=0.000000D+00  E= 3.962839D+00

 Vector  313  Occ=0.000000D+00  E= 3.989440D+00

 Vector  314  Occ=0.000000D+00  E= 3.994120D+00

 Vector  315  Occ=0.000000D+00  E= 4.010686D+00

 Vector  316  Occ=0.000000D+00  E= 4.033093D+00

 Vector  317  Occ=0.000000D+00  E= 4.060722D+00

 Vector  318  Occ=0.000000D+00  E= 4.070011D+00

 Vector  319  Occ=0.000000D+00  E= 4.102909D+00

 Vector  320  Occ=0.000000D+00  E= 4.103473D+00

 Vector  321  Occ=0.000000D+00  E= 4.105918D+00

 Vector  322  Occ=0.000000D+00  E= 4.154001D+00

 Vector  323  Occ=0.000000D+00  E= 4.206790D+00

 Vector  324  Occ=0.000000D+00  E= 4.230600D+00

 Vector  325  Occ=0.000000D+00  E= 4.236973D+00

 Vector  326  Occ=0.000000D+00  E= 4.330826D+00

 Vector  327  Occ=0.000000D+00  E= 4.345457D+00

 Vector  328  Occ=0.000000D+00  E= 4.390497D+00

 Vector  329  Occ=0.000000D+00  E= 4.420641D+00

 Vector  330  Occ=0.000000D+00  E= 4.444565D+00

 Vector  331  Occ=0.000000D+00  E= 4.462567D+00

 Vector  332  Occ=0.000000D+00  E= 4.485974D+00

 Vector  333  Occ=0.000000D+00  E= 4.490597D+00

 Vector  334  Occ=0.000000D+00  E= 4.506295D+00

 Vector  335  Occ=0.000000D+00  E= 4.520560D+00

 Vector  336  Occ=0.000000D+00  E= 4.575940D+00

 Vector  337  Occ=0.000000D+00  E= 4.627120D+00

 Vector  338  Occ=0.000000D+00  E= 4.651226D+00

 Vector  339  Occ=0.000000D+00  E= 4.658439D+00

 Vector  340  Occ=0.000000D+00  E= 4.705191D+00

 Vector  341  Occ=0.000000D+00  E= 4.720346D+00

 Vector  342  Occ=0.000000D+00  E= 4.750763D+00

 Vector  343  Occ=0.000000D+00  E= 4.754481D+00

 Vector  344  Occ=0.000000D+00  E= 4.767735D+00

 Vector  345  Occ=0.000000D+00  E= 4.802315D+00

 Vector  346  Occ=0.000000D+00  E= 4.805051D+00

 Vector  347  Occ=0.000000D+00  E= 4.807678D+00

 Vector  348  Occ=0.000000D+00  E= 4.822859D+00

 Vector  349  Occ=0.000000D+00  E= 4.857664D+00

 Vector  350  Occ=0.000000D+00  E= 4.903566D+00

 Vector  351  Occ=0.000000D+00  E= 4.933795D+00

 Vector  352  Occ=0.000000D+00  E= 4.949659D+00

 Vector  353  Occ=0.000000D+00  E= 4.959788D+00

 Vector  354  Occ=0.000000D+00  E= 4.982628D+00

 Vector  355  Occ=0.000000D+00  E= 5.085765D+00

 Vector  356  Occ=0.000000D+00  E= 5.088847D+00

 Vector  357  Occ=0.000000D+00  E= 5.093067D+00

 Vector  358  Occ=0.000000D+00  E= 5.166999D+00

 Vector  359  Occ=0.000000D+00  E= 5.260301D+00

 Vector  360  Occ=0.000000D+00  E= 5.323266D+00

 Vector  361  Occ=0.000000D+00  E= 5.323622D+00

 Vector  362  Occ=0.000000D+00  E= 5.410791D+00

 Vector  363  Occ=0.000000D+00  E= 5.415628D+00

 Vector  364  Occ=0.000000D+00  E= 5.436423D+00

 Vector  365  Occ=0.000000D+00  E= 5.620429D+00

 Vector  366  Occ=0.000000D+00  E= 5.635067D+00

 Vector  367  Occ=0.000000D+00  E= 5.682450D+00

 Vector  368  Occ=0.000000D+00  E= 5.749031D+00

 Vector  369  Occ=0.000000D+00  E= 5.802520D+00

 Vector  370  Occ=0.000000D+00  E= 5.919763D+00

 Vector  371  Occ=0.000000D+00  E= 5.930070D+00

 Vector  372  Occ=0.000000D+00  E= 6.047827D+00

 Vector  373  Occ=0.000000D+00  E= 6.165659D+00

 Vector  374  Occ=0.000000D+00  E= 6.253110D+00

 Vector  375  Occ=0.000000D+00  E= 6.406674D+00

 Vector  376  Occ=0.000000D+00  E= 6.449965D+00

 Vector  377  Occ=0.000000D+00  E= 6.604568D+00

 Vector  378  Occ=0.000000D+00  E= 6.864800D+00

 Vector  379  Occ=0.000000D+00  E= 1.504891D+01

 Vector  380  Occ=0.000000D+00  E= 1.506636D+01

 Vector  381  Occ=0.000000D+00  E= 1.597859D+01

 Vector  382  Occ=0.000000D+00  E= 1.764793D+01

 Vector  383  Occ=0.000000D+00  E= 1.800503D+01

 Vector  384  Occ=0.000000D+00  E= 1.806307D+01

     Multipole analysis of the density
     ---------------------------------

     L   x y z        total         alpha         beta         nuclear
     -   - - -        -----         -----         ----         -------
     0   0 0 0     -0.000000    -21.000000    -20.000000     41.000000

     1   1 0 0      0.021581      0.106833     -0.085252     -0.000000
     1   0 1 0     -0.340552     -1.694600      1.354048      0.000000
     1   0 0 1     -0.003119     -0.000785     -0.002334     -0.000000

     2   2 0 0    -22.668327   -108.564874   -106.579945    192.476493
     2   1 1 0      0.190313     -0.490519     -1.118463      1.799295
     2   1 0 1     -0.000368      0.000127      0.000404     -0.000899
     2   0 2 0    -25.676879   -100.810457    -88.898981    164.032559
     2   0 1 1      0.005851     -0.002023     -0.006414      0.014288

  Root   1         a              0.106293654 a.u.                2.8924 eV
     Dipole Oscillator Strength                    0.0012113780
  Root   2         a              0.126063209 a.u.                3.4304 eV
     Dipole Oscillator Strength                    0.0000000086
  Root   3         a              0.143226173 a.u.                3.8974 eV
     Dipole Oscillator Strength                    0.0000121752
  Root   4         a              0.170397120 a.u.                4.6367 eV
     Dipole Oscillator Strength                    0.0000000595
  Root   5         a              0.171412316 a.u.                4.6644 eV
     Dipole Oscillator Strength                    0.0002490653
  Root   6         a              0.173941682 a.u.                4.7332 eV
     Dipole Oscillator Strength                    0.0037544672
  Root   7         a              0.177210278 a.u.                4.8221 eV
     Dipole Oscillator Strength                    0.0000138624
  Root   8         a              0.191912762 a.u.                5.2222 eV
     Dipole Oscillator Strength                    0.0006901202
  Root   9         a              0.201773944 a.u.                5.4906 eV
     Dipole Oscillator Strength                    0.0064713132
  Root  10         a              0.211027026 a.u.                5.7423 eV
     Dipole Oscillator Strength                    0.0075582832
  Root  11         a              0.215668060 a.u.                5.8686 eV
     Dipole Oscillator Strength                    0.0015008045
  Root  12         a              0.223038219 a.u.                6.0692 eV
     Dipole Oscillator Strength                    0.0002776271
  Root  13         a              0.224549414 a.u.                6.1103 eV
     Dipole Oscillator Strength                    0.0041241435
  Root  14         a              0.228570918 a.u.                6.2197 eV
     Dipole Oscillator Strength                    0.0091104999
  Root  15         a              0.228593265 a.u.                6.2203 eV
     Dipole Oscillator Strength                    0.0001046984
  Root  16         a              0.229659393 a.u.                6.2494 eV
     Dipole Oscillator Strength                    0.0009969639
  Root  17         a              0.229981468 a.u.                6.2581 eV
     Dipole Oscillator Strength                    0.0000001977
  Root  18         a              0.232246166 a.u.                6.3197 eV
     Dipole Oscillator Strength                    0.0225478892
  Root  19         a              0.235377255 a.u.                6.4049 eV
     Dipole Oscillator Strength                    0.0001698297
  Root  20         a              0.241719899 a.u.                6.5775 eV
     Dipole Oscillator Strength                    0.0000000067
  Root  21         a              0.242598640 a.u.                6.6014 eV
     Dipole Oscillator Strength                    0.0951470256
  Root  22         a              0.245274958 a.u.                6.6743 eV
     Dipole Oscillator Strength                    0.0017985473
  Root  23         a              0.246368193 a.u.                6.7040 eV
     Dipole Oscillator Strength                    0.0333440392
  Root  24         a              0.247300801 a.u.                6.7294 eV
     Dipole Oscillator Strength                    0.0013502545
  Root  25         a              0.248314274 a.u.                6.7570 eV
     Dipole Oscillator Strength                    0.0000000990
  Root  26         a              0.251184817 a.u.                6.8351 eV
     Dipole Oscillator Strength                    0.0473050994
  Root  27         a              0.251973640 a.u.                6.8566 eV
     Dipole Oscillator Strength                    0.0100882594
  Root  28         a              0.252621057 a.u.                6.8742 eV
     Dipole Oscillator Strength                    0.0000005230
  Root  29         a              0.253988478 a.u.                6.9114 eV
     Dipole Oscillator Strength                    0.0000036393
  Root  30         a              0.254756419 a.u.                6.9323 eV
     Dipole Oscillator Strength                    0.3853269642
  Root  31         a              0.255406221 a.u.                6.9500 eV
     Dipole Oscillator Strength                    0.0692299831
  Root  32         a              0.260752958 a.u.                7.0955 eV
     Dipole Oscillator Strength                    0.0015884579
  Root  33         a              0.265400951 a.u.                7.2219 eV
     Dipole Oscillator Strength                    0.0000000254
  Root  34         a              0.267189542 a.u.                7.2706 eV
     Dipole Oscillator Strength                    0.2578682687
  Root  35         a              0.270808713 a.u.                7.3691 eV
     Dipole Oscillator Strength                    0.0000177657
  Root  36         a              0.271252512 a.u.                7.3812 eV
     Dipole Oscillator Strength                    0.0004303841
  Root  37         a              0.271755952 a.u.                7.3949 eV
     Dipole Oscillator Strength                    0.0477226914
  Root  38         a              0.271807567 a.u.                7.3963 eV
     Dipole Oscillator Strength                    0.0001133214
  Root  39         a              0.272285583 a.u.                7.4093 eV
     Dipole Oscillator Strength                    0.0000000004
  Root  40         a              0.272511124 a.u.                7.4154 eV
     Dipole Oscillator Strength                    0.0003196083
 Total times  cpu:     3901.7s     wall:     4046.0s
