============================== echo of input deck ==============================
echo
start

title "None"

geometry
C    -0.08730816    1.38831460    0.00000005
C    -1.26760697    0.69172211   -0.00000002
C    -1.16758106   -0.70519174   -0.00000002
C     0.08330421   -1.31596489    0.00000004
C     1.24625290   -0.55216898   -0.00000001
C     1.17041188    0.84409937    0.00000005
H    -2.23120414    1.18344380   -0.00000010
H    -2.06699372   -1.30768162   -0.00000009
H     0.15349260   -2.39521268   -0.00000000
H     2.21534172   -1.03451548   -0.00000013
H     2.06702043    1.44926064   -0.00000010
symmetry c1
end

basis spherical
 * library "aug-cc-pvtz"
end

dft
 direct
 mult 2
 iterations 500
 xc b3lyp
end

tddft
 nroots 40
 notriplet
 algorithm 1
end
task tddft energy
================================================================================

 Output coordinates in angstroms (scale by  1.889725989 to convert to a.u.)

  No.       Tag          Charge          X              Y              Z
 ---- ---------------- ---------- -------------- -------------- --------------
    1 C                    6.0000    -0.08736898     1.38831076     0.00000005
    2 C                    6.0000    -1.26766779     0.69171827    -0.00000002
    3 C                    6.0000    -1.16764188    -0.70519558    -0.00000002
    4 C                    6.0000     0.08324339    -1.31596873     0.00000004
    5 C                    6.0000     1.24619208    -0.55217282    -0.00000001
    6 C                    6.0000     1.17035106     0.84409553     0.00000005
    7 H                    1.0000    -2.23126496     1.18343996    -0.00000010
    8 H                    1.0000    -2.06705454    -1.30768546    -0.00000009
    9 H                    1.0000     0.15343178    -2.39521652    -0.00000000
   10 H                    1.0000     2.21528090    -1.03451932    -0.00000013
   11 H                    1.0000     2.06695961     1.44925680    -0.00000010

         Total DFT energy =     -231.646317712428

                    DFT Final Alpha Molecular Orbital Analysis
                    ------------------------------------------

 Vector    1  Occ=1.000000D+00  E=-1.020521D+01

 Vector  305  Occ=0.000000D+00  E= 3.874534D+00

 Vector  306  Occ=0.000000D+00  E= 3.900104D+00

 Vector  307  Occ=0.000000D+00  E= 3.910032D+00

 Vector  308  Occ=0.000000D+00  E= 3.921956D+00

 Vector  309  Occ=0.000000D+00  E= 3.926242D+00

 Vector  310  Occ=0.000000D+00  E= 3.952340D+00

 Vector  311  Occ=0.000000D+00  E= 3.958697D+00

 Vector  312  Occ=0.000000D+00  E= 3.962771D+00

 Vector  313  Occ=0.000000D+00  E= 3.989424D+00

 Vector  314  Occ=0.000000D+00  E= 3.994106D+00

 Vector  315  Occ=0.000000D+00  E= 4.010701D+00

 Vector  316  Occ=0.000000D+00  E= 4.033025D+00

 Vector  317  Occ=0.000000D+00  E= 4.060698D+00

 Vector  318  Occ=0.000000D+00  E= 4.069981D+00

 Vector  319  Occ=0.000000D+00  E= 4.102918D+00

 Vector  320  Occ=0.000000D+00  E= 4.103503D+00

 Vector  321  Occ=0.000000D+00  E= 4.105853D+00

 Vector  322  Occ=0.000000D+00  E= 4.153987D+00

 Vector  323  Occ=0.000000D+00  E= 4.206785D+00

 Vector  324  Occ=0.000000D+00  E= 4.230577D+00

 Vector  325  Occ=0.000000D+00  E= 4.236954D+00

 Vector  326  Occ=0.000000D+00  E= 4.330798D+00

 Vector  327  Occ=0.000000D+00  E= 4.345443D+00

 Vector  328  Occ=0.000000D+00  E= 4.390466D+00

 Vector  329  Occ=0.000000D+00  E= 4.420624D+00

 Vector  330  Occ=0.000000D+00  E= 4.444564D+00

 Vector  331  Occ=0.000000D+00  E= 4.462539D+00

 Vector  332  Occ=0.000000D+00  E= 4.485918D+00

 Vector  333  Occ=0.000000D+00  E= 4.490617D+00

 Vector  334  Occ=0.000000D+00  E= 4.506268D+00

 Vector  335  Occ=0.000000D+00  E= 4.520567D+00

 Vector  336  Occ=0.000000D+00  E= 4.575900D+00

 Vector  337  Occ=0.000000D+00  E= 4.627110D+00

 Vector  338  Occ=0.000000D+00  E= 4.651210D+00

 Vector  339  Occ=0.000000D+00  E= 4.658399D+00

 Vector  340  Occ=0.000000D+00  E= 4.705141D+00

 Vector  341  Occ=0.000000D+00  E= 4.720331D+00

 Vector  342  Occ=0.000000D+00  E= 4.750741D+00

 Vector  343  Occ=0.000000D+00  E= 4.754456D+00

 Vector  344  Occ=0.000000D+00  E= 4.767718D+00

 Vector  345  Occ=0.000000D+00  E= 4.802296D+00

 Vector  346  Occ=0.000000D+00  E= 4.805026D+00

 Vector  347  Occ=0.000000D+00  E= 4.807722D+00

 Vector  348  Occ=0.000000D+00  E= 4.822847D+00

 Vector  349  Occ=0.000000D+00  E= 4.857656D+00

 Vector  350  Occ=0.000000D+00  E= 4.903537D+00

 Vector  351  Occ=0.000000D+00  E= 4.933781D+00

 Vector  352  Occ=0.000000D+00  E= 4.949463D+00

 Vector  353  Occ=0.000000D+00  E= 4.959998D+00

 Vector  354  Occ=0.000000D+00  E= 4.982609D+00

 Vector  355  Occ=0.000000D+00  E= 5.085752D+00

 Vector  356  Occ=0.000000D+00  E= 5.088832D+00

 Vector  357  Occ=0.000000D+00  E= 5.093053D+00

 Vector  358  Occ=0.000000D+00  E= 5.166988D+00

 Vector  359  Occ=0.000000D+00  E= 5.260295D+00

 Vector  360  Occ=0.000000D+00  E= 5.322054D+00

 Vector  361  Occ=0.000000D+00  E= 5.324807D+00

 Vector  362  Occ=0.000000D+00  E= 5.410753D+00

 Vector  363  Occ=0.000000D+00  E= 5.415705D+00

 Vector  364  Occ=0.000000D+00  E= 5.436344D+00

 Vector  365  Occ=0.000000D+00  E= 5.620404D+00

 Vector  366  Occ=0.000000D+00  E= 5.635057D+00

 Vector  367  Occ=0.000000D+00  E= 5.682436D+00

 Vector  368  Occ=0.000000D+00  E= 5.749048D+00

 Vector  369  Occ=0.000000D+00  E= 5.802504D+00

 Vector  370  Occ=0.000000D+00  E= 5.919690D+00

 Vector  371  Occ=0.000000D+00  E= 5.930141D+00

 Vector  372  Occ=0.000000D+00  E= 6.047817D+00

 Vector  373  Occ=0.000000D+00  E= 6.165644D+00

 Vector  374  Occ=0.000000D+00  E= 6.253087D+00

 Vector  375  Occ=0.000000D+00  E= 6.406686D+00

 Vector  376  Occ=0.000000D+00  E= 6.449961D+00

 Vector  377  Occ=0.000000D+00  E= 6.604552D+00

 Vector  378  Occ=0.000000D+00  E= 6.864784D+00

 Vector  379  Occ=0.000000D+00  E= 1.504870D+01

 Vector  380  Occ=0.000000D+00  E= 1.506650D+01

 Vector  381  Occ=0.000000D+00  E= 1.597861D+01

 Vector  382  Occ=0.000000D+00  E= 1.764814D+01

 Vector  383  Occ=0.000000D+00  E= 1.800490D+01

 Vector  384  Occ=0.000000D+00  E= 1.806326D+01

     Multipole analysis of the density
     ---------------------------------

     L   x y z        total         alpha         beta         nuclear
     -   - - -        -----         -----         ----         -------
     0   0 0 0     -0.000000    -21.000000    -20.000000     41.000000

     1   1 0 0      0.021333      0.106316     -0.084983     -0.000000
     1   0 1 0     -0.340609     -1.694471      1.353862      0.000000
     1   0 0 1     -0.000001     -0.000001     -0.000000      0.000000

     2   2 0 0    -22.665915   -108.568290   -106.579707    192.482082
     2   1 1 0      0.185382     -0.473058     -1.097362      1.755803
     2   1 0 1      0.000000     -0.000001     -0.000001      0.000002
     2   0 2 0    -25.679246   -100.808128    -88.898295    164.027177
     2   0 1 1     -0.000005     -0.000004     -0.000003      0.000001

  Root   1         a              0.106107442 a.u.                2.8873 eV
     Dipole Oscillator Strength                    0.0012090152
  Root   2         a              0.125974360 a.u.                3.4279 eV
     Dipole Oscillator Strength                    0.0000000067
  Root   3         a              0.143180994 a.u.                3.8962 eV
     Dipole Oscillator Strength                    0.0000123744
  Root   4         a              0.170309527 a.u.                4.6344 eV
     Dipole Oscillator Strength                    0.0000000487
  Root   5         a              0.171390157 a.u.                4.6638 eV
     Dipole Oscillator Strength                    0.0002468210
  Root   6         a              0.173819559 a.u.                4.7299 eV
     Dipole Oscillator Strength                    0.0037713292
  Root   7         a              0.177176471 a.u.                4.8212 eV
     Dipole Oscillator Strength                    0.0000140945
  Root   8         a              0.191905117 a.u.                5.2220 eV
     Dipole Oscillator Strength                    0.0006742481
  Root   9         a              0.201732004 a.u.                5.4894 eV
     Dipole Oscillator Strength                    0.0064426160
  Root  10         a              0.210940476 a.u.                5.7400 eV
     Dipole Oscillator Strength                    0.0075799149
  Root  11         a              0.215573526 a.u.                5.8661 eV
     Dipole Oscillator Strength                    0.0015009743
  Root  12         a              0.223052916 a.u.                6.0696 eV
     Dipole Oscillator Strength                    0.0002789047
  Root  13         a              0.224528222 a.u.                6.1097 eV
     Dipole Oscillator Strength                    0.0040475356
  Root  14         a              0.228486370 a.u.                6.2174 eV
     Dipole Oscillator Strength                    0.0092175078
  Root  15         a              0.228616952 a.u.                6.2210 eV
     Dipole Oscillator Strength                    0.0000009670
  Root  16         a              0.229634235 a.u.                6.2487 eV
     Dipole Oscillator Strength                    0.0009870363
  Root  17         a              0.229974487 a.u.                6.2579 eV
     Dipole Oscillator Strength                    0.0000025381
  Root  18         a              0.232164406 a.u.                6.3175 eV
     Dipole Oscillator Strength                    0.0225102749
  Root  19         a              0.235288588 a.u.                6.4025 eV
     Dipole Oscillator Strength                    0.0001735152
  Root  20         a              0.241731813 a.u.                6.5779 eV
     Dipole Oscillator Strength                    0.0000006503
  Root  21         a              0.242532475 a.u.                6.5996 eV
     Dipole Oscillator Strength                    0.0945888908
  Root  22         a              0.245288120 a.u.                6.6746 eV
     Dipole Oscillator Strength                    0.0020181381
  Root  23         a              0.246395349 a.u.                6.7048 eV
     Dipole Oscillator Strength                    0.0332366549
  Root  24         a              0.247290674 a.u.                6.7291 eV
     Dipole Oscillator Strength                    0.0012596178
  Root  25         a              0.248298594 a.u.                6.7566 eV
     Dipole Oscillator Strength                    0.0000053388
  Root  26         a              0.251109829 a.u.                6.8330 eV
     Dipole Oscillator Strength                    0.0457627011
  Root  27         a              0.251954427 a.u.                6.8560 eV
     Dipole Oscillator Strength                    0.0100326480
  Root  28         a              0.252656728 a.u.                6.8751 eV
     Dipole Oscillator Strength                    0.0000204325
  Root  29         a              0.253972137 a.u.                6.9109 eV
     Dipole Oscillator Strength                    0.0000002713
  Root  30         a              0.254723331 a.u.                6.9314 eV
     Dipole Oscillator Strength                    0.3864246163
  Root  31         a              0.255323638 a.u.                6.9477 eV
     Dipole Oscillator Strength                    0.0692064496
  Root  32         a              0.260673618 a.u.                7.0933 eV
     Dipole Oscillator Strength                    0.0015930138
  Root  33         a              0.265414987 a.u.                7.2223 eV
     Dipole Oscillator Strength                    0.0000000008
  Root  34         a              0.267142961 a.u.                7.2693 eV
     Dipole Oscillator Strength                    0.2572726032
  Root  35         a              0.270827979 a.u.                7.3696 eV
     Dipole Oscillator Strength                    0.0000153213
  Root  36         a              0.271244520 a.u.                7.3809 eV
     Dipole Oscillator Strength                    0.0004232661
  Root  37         a              0.271694571 a.u.                7.3932 eV
     Dipole Oscillator Strength                    0.0506414131
  Root  38         a              0.271812104 a.u.                7.3964 eV
     Dipole Oscillator Strength                    0.0001129436
  Root  39         a              0.272272505 a.u.                7.4089 eV
     Dipole Oscillator Strength                    0.0000003707
  Root  40         a              0.272515689 a.u.                7.4155 eV
     Dipole Oscillator Strength                    0.0003137004
 Total times  cpu:     2997.4s     wall:     3085.9s
