============================== echo of input deck ==============================
echo
start

title "None"

geometry
C    -0.08760294    1.39037841    0.00000005
C    -1.26665065    0.69040330   -0.00000002
C    -1.16863241   -0.70568780   -0.00000002
C     0.08281449   -1.31437839    0.00000004
C     1.24796484   -0.55342654   -0.00000001
C     1.16997754    0.84392678    0.00000005
H    -2.23149139    1.17964279   -0.00000010
H    -2.06820717   -1.30786539   -0.00000009
H     0.15082350   -2.39377660    0.00000000
H     2.21600811   -1.03793165   -0.00000013
H     2.06578139    1.45039911   -0.00000010
symmetry c1
end

basis spherical
 * library "aug-cc-pvtz"
end

dft
 direct
 mult 2
 iterations 500
 xc b3lyp
end

tddft
 nroots 40
 notriplet
 algorithm 1
end
task tddft energy
================================================================================

 Output coordinates in angstroms (scale by  1.889725989 to convert to a.u.)

  No.       Tag          Charge          X              Y              Z
 ---- ---------------- ---------- -------------- -------------- --------------
    1 C                    6.0000    -0.08760635     1.39043298     0.00000005
    2 C                    6.0000    -1.26665406     0.69045787    -0.00000002
    3 C                    6.0000    -1.16863582    -0.70563323    -0.00000002
    4 C                    6.0000     0.08281108    -1.31432382     0.00000004
    5 C                    6.0000     1.24796143    -0.55337197    -0.00000001
    6 C                    6.0000     1.16997413     0.84398135     0.00000005
    7 H                    1.0000    -2.23149480     1.17969736    -0.00000010
    8 H                    1.0000    -2.06821058    -1.30781082    -0.00000009
    9 H                    1.0000     0.15082009    -2.39372203    -0.00000000
   10 H                    1.0000     2.21600470    -1.03787708    -0.00000013
   11 H                    1.0000     2.06577798     1.45045368    -0.00000010

         Total DFT energy =     -231.646309360165

                    DFT Final Alpha Molecular Orbital Analysis
                    ------------------------------------------

 Vector    1  Occ=1.000000D+00  E=-1.020548D+01

 Vector  305  Occ=0.000000D+00  E= 3.874725D+00

 Vector  306  Occ=0.000000D+00  E= 3.900750D+00

 Vector  307  Occ=0.000000D+00  E= 3.909203D+00

 Vector  308  Occ=0.000000D+00  E= 3.921845D+00

 Vector  309  Occ=0.000000D+00  E= 3.926234D+00

 Vector  310  Occ=0.000000D+00  E= 3.952081D+00

 Vector  311  Occ=0.000000D+00  E= 3.959851D+00

 Vector  312  Occ=0.000000D+00  E= 3.962651D+00

 Vector  313  Occ=0.000000D+00  E= 3.989319D+00

 Vector  314  Occ=0.000000D+00  E= 3.993507D+00

 Vector  315  Occ=0.000000D+00  E= 4.010718D+00

 Vector  316  Occ=0.000000D+00  E= 4.031451D+00

 Vector  317  Occ=0.000000D+00  E= 4.060216D+00

 Vector  318  Occ=0.000000D+00  E= 4.069404D+00

 Vector  319  Occ=0.000000D+00  E= 4.102845D+00

 Vector  320  Occ=0.000000D+00  E= 4.104374D+00

 Vector  321  Occ=0.000000D+00  E= 4.105296D+00

 Vector  322  Occ=0.000000D+00  E= 4.155359D+00

 Vector  323  Occ=0.000000D+00  E= 4.205996D+00

 Vector  324  Occ=0.000000D+00  E= 4.230661D+00

 Vector  325  Occ=0.000000D+00  E= 4.236184D+00

 Vector  326  Occ=0.000000D+00  E= 4.328992D+00

 Vector  327  Occ=0.000000D+00  E= 4.344684D+00

 Vector  328  Occ=0.000000D+00  E= 4.390306D+00

 Vector  329  Occ=0.000000D+00  E= 4.420387D+00

 Vector  330  Occ=0.000000D+00  E= 4.443943D+00

 Vector  331  Occ=0.000000D+00  E= 4.459695D+00

 Vector  332  Occ=0.000000D+00  E= 4.485078D+00

 Vector  333  Occ=0.000000D+00  E= 4.489955D+00

 Vector  334  Occ=0.000000D+00  E= 4.505552D+00

 Vector  335  Occ=0.000000D+00  E= 4.521074D+00

 Vector  336  Occ=0.000000D+00  E= 4.576175D+00

 Vector  337  Occ=0.000000D+00  E= 4.626467D+00

 Vector  338  Occ=0.000000D+00  E= 4.650645D+00

 Vector  339  Occ=0.000000D+00  E= 4.658989D+00

 Vector  340  Occ=0.000000D+00  E= 4.706943D+00

 Vector  341  Occ=0.000000D+00  E= 4.720193D+00

 Vector  342  Occ=0.000000D+00  E= 4.750730D+00

 Vector  343  Occ=0.000000D+00  E= 4.754413D+00

 Vector  344  Occ=0.000000D+00  E= 4.766897D+00

 Vector  345  Occ=0.000000D+00  E= 4.802278D+00

 Vector  346  Occ=0.000000D+00  E= 4.803275D+00

 Vector  347  Occ=0.000000D+00  E= 4.807565D+00

 Vector  348  Occ=0.000000D+00  E= 4.822300D+00

 Vector  349  Occ=0.000000D+00  E= 4.856455D+00

 Vector  350  Occ=0.000000D+00  E= 4.903441D+00

 Vector  351  Occ=0.000000D+00  E= 4.932965D+00

 Vector  352  Occ=0.000000D+00  E= 4.949331D+00

 Vector  353  Occ=0.000000D+00  E= 4.960115D+00

 Vector  354  Occ=0.000000D+00  E= 4.982396D+00

 Vector  355  Occ=0.000000D+00  E= 5.084916D+00

 Vector  356  Occ=0.000000D+00  E= 5.088554D+00

 Vector  357  Occ=0.000000D+00  E= 5.092313D+00

 Vector  358  Occ=0.000000D+00  E= 5.165731D+00

 Vector  359  Occ=0.000000D+00  E= 5.259186D+00

 Vector  360  Occ=0.000000D+00  E= 5.323235D+00

 Vector  361  Occ=0.000000D+00  E= 5.323479D+00

 Vector  362  Occ=0.000000D+00  E= 5.411811D+00

 Vector  363  Occ=0.000000D+00  E= 5.417018D+00

 Vector  364  Occ=0.000000D+00  E= 5.435476D+00

 Vector  365  Occ=0.000000D+00  E= 5.619277D+00

 Vector  366  Occ=0.000000D+00  E= 5.634345D+00

 Vector  367  Occ=0.000000D+00  E= 5.682779D+00

 Vector  368  Occ=0.000000D+00  E= 5.743818D+00

 Vector  369  Occ=0.000000D+00  E= 5.799810D+00

 Vector  370  Occ=0.000000D+00  E= 5.922831D+00

 Vector  371  Occ=0.000000D+00  E= 5.928684D+00

 Vector  372  Occ=0.000000D+00  E= 6.047697D+00

 Vector  373  Occ=0.000000D+00  E= 6.165335D+00

 Vector  374  Occ=0.000000D+00  E= 6.251980D+00

 Vector  375  Occ=0.000000D+00  E= 6.406145D+00

 Vector  376  Occ=0.000000D+00  E= 6.448358D+00

 Vector  377  Occ=0.000000D+00  E= 6.604610D+00

 Vector  378  Occ=0.000000D+00  E= 6.862826D+00

 Vector  379  Occ=0.000000D+00  E= 1.503421D+01

 Vector  380  Occ=0.000000D+00  E= 1.505948D+01

 Vector  381  Occ=0.000000D+00  E= 1.597832D+01

 Vector  382  Occ=0.000000D+00  E= 1.764173D+01

 Vector  383  Occ=0.000000D+00  E= 1.800497D+01

 Vector  384  Occ=0.000000D+00  E= 1.805905D+01

     Multipole analysis of the density
     ---------------------------------

     L   x y z        total         alpha         beta         nuclear
     -   - - -        -----         -----         ----         -------
     0   0 0 0     -0.000000    -21.000000    -20.000000     41.000000

     1   1 0 0      0.021370      0.106916     -0.085546      0.000000
     1   0 1 0     -0.340906     -1.697774      1.356868      0.000000
     1   0 0 1     -0.000001     -0.000001     -0.000000      0.000000

     2   2 0 0    -22.662816   -108.604587   -106.621937    192.563707
     2   1 1 0      0.191042     -0.491633     -1.121512      1.804187
     2   1 0 1      0.000000     -0.000001     -0.000001      0.000002
     2   0 2 0    -25.682851   -100.832675    -88.892454    164.042278
     2   0 1 1     -0.000005     -0.000004     -0.000003      0.000001

  Root   1         a              0.105471063 a.u.                2.8700 eV
     Dipole Oscillator Strength                    0.0012141302
  Root   2         a              0.125462972 a.u.                3.4140 eV
     Dipole Oscillator Strength                    0.0000000000
  Root   3         a              0.143090144 a.u.                3.8937 eV
     Dipole Oscillator Strength                    0.0000125400
  Root   4         a              0.170983764 a.u.                4.6527 eV
     Dipole Oscillator Strength                    0.0000000000
  Root   5         a              0.171299534 a.u.                4.6613 eV
     Dipole Oscillator Strength                    0.0002502771
  Root   6         a              0.174430298 a.u.                4.7465 eV
     Dipole Oscillator Strength                    0.0037838849
  Root   7         a              0.177075148 a.u.                4.8185 eV
     Dipole Oscillator Strength                    0.0000144471
  Root   8         a              0.191814023 a.u.                5.2195 eV
     Dipole Oscillator Strength                    0.0006803227
  Root   9         a              0.201647122 a.u.                5.4871 eV
     Dipole Oscillator Strength                    0.0064404717
  Root  10         a              0.211662830 a.u.                5.7596 eV
     Dipole Oscillator Strength                    0.0074576933
  Root  11         a              0.215029148 a.u.                5.8512 eV
     Dipole Oscillator Strength                    0.0014785232
  Root  12         a              0.222995074 a.u.                6.0680 eV
     Dipole Oscillator Strength                    0.0002754044
  Root  13         a              0.224485859 a.u.                6.1086 eV
     Dipole Oscillator Strength                    0.0043549694
  Root  14         a              0.228610069 a.u.                6.2208 eV
     Dipole Oscillator Strength                    0.0000000000
  Root  15         a              0.229206970 a.u.                6.2370 eV
     Dipole Oscillator Strength                    0.0090674417
  Root  16         a              0.229615183 a.u.                6.2481 eV
     Dipole Oscillator Strength                    0.0009896466
  Root  17         a              0.229965885 a.u.                6.2577 eV
     Dipole Oscillator Strength                    0.0000000001
  Root  18         a              0.232829803 a.u.                6.3356 eV
     Dipole Oscillator Strength                    0.0223809534
  Root  19         a              0.234730641 a.u.                6.3873 eV
     Dipole Oscillator Strength                    0.0001973066
  Root  20         a              0.241673178 a.u.                6.5763 eV
     Dipole Oscillator Strength                    0.0000000008
  Root  21         a              0.241890119 a.u.                6.5822 eV
     Dipole Oscillator Strength                    0.0876734717
  Root  22         a              0.245264524 a.u.                6.6740 eV
     Dipole Oscillator Strength                    0.0022250952
  Root  23         a              0.246376851 a.u.                6.7043 eV
     Dipole Oscillator Strength                    0.0327970825
  Root  24         a              0.247271702 a.u.                6.7286 eV
     Dipole Oscillator Strength                    0.0014992619
  Root  25         a              0.248278698 a.u.                6.7560 eV
     Dipole Oscillator Strength                    0.0000000002
  Root  26         a              0.251652218 a.u.                6.8478 eV
     Dipole Oscillator Strength                    0.0756536772
  Root  27         a              0.251949301 a.u.                6.8559 eV
     Dipole Oscillator Strength                    0.0100303623
  Root  28         a              0.252661026 a.u.                6.8753 eV
     Dipole Oscillator Strength                    0.0000000013
  Root  29         a              0.253984610 a.u.                6.9113 eV
     Dipole Oscillator Strength                    0.0000000003
  Root  30         a              0.254756577 a.u.                6.9323 eV
     Dipole Oscillator Strength                    0.3551525170
  Root  31         a              0.255931509 a.u.                6.9643 eV
     Dipole Oscillator Strength                    0.0790582388
  Root  32         a              0.261425366 a.u.                7.1137 eV
     Dipole Oscillator Strength                    0.0016258701
  Root  33         a              0.265356660 a.u.                7.2207 eV
     Dipole Oscillator Strength                    0.0000000000
  Root  34         a              0.267008974 a.u.                7.2657 eV
     Dipole Oscillator Strength                    0.2775927837
  Root  35         a              0.270822044 a.u.                7.3694 eV
     Dipole Oscillator Strength                    0.0000166627
  Root  36         a              0.271133580 a.u.                7.3779 eV
     Dipole Oscillator Strength                    0.0004273398
  Root  37         a              0.271808610 a.u.                7.3963 eV
     Dipole Oscillator Strength                    0.0001207043
  Root  38         a              0.272163168 a.u.                7.4059 eV
     Dipole Oscillator Strength                    0.0267092911
  Root  39         a              0.272245475 a.u.                7.4082 eV
     Dipole Oscillator Strength                    0.0000000001
  Root  40         a              0.272450248 a.u.                7.4138 eV
     Dipole Oscillator Strength                    0.0003088197
 Total times  cpu:     2974.4s     wall:     3095.5s
