============================== echo of input deck ==============================
echo
start

title "None"

geometry
C    -0.08758029    1.38829727    0.00000005
C    -1.26756832    0.69031333   -0.00000002
C    -1.16748669   -0.70418800   -0.00000002
C     0.08357889   -1.31594733    0.00000004
C     1.24647230   -0.55315297   -0.00000001
C     1.17027303    0.84550164    0.00000005
H    -2.23017570    1.18387633   -0.00000010
H    -2.06772781   -1.30533845   -0.00000009
H     0.14998467   -2.39543350    0.00000000
H     2.21490757   -1.03693166   -0.00000013
H     2.06809443    1.44896065   -0.00000010
symmetry c1
end

basis spherical
 * library "aug-cc-pvtz"
end

dft
 direct
 mult 2
 iterations 500
 xc b3lyp
end

tddft
 nroots 40
 notriplet
 algorithm 1
end
task tddft energy
================================================================================

 Output coordinates in angstroms (scale by  1.889725989 to convert to a.u.)

  No.       Tag          Charge          X              Y              Z
 ---- ---------------- ---------- -------------- -------------- --------------
    1 C                    6.0000    -0.08760997     1.38829539     0.00000005
    2 C                    6.0000    -1.26759800     0.69031145    -0.00000002
    3 C                    6.0000    -1.16751637    -0.70418988    -0.00000002
    4 C                    6.0000     0.08354921    -1.31594921     0.00000004
    5 C                    6.0000     1.24644262    -0.55315485    -0.00000001
    6 C                    6.0000     1.17024335     0.84549976     0.00000005
    7 H                    1.0000    -2.23020538     1.18387445    -0.00000010
    8 H                    1.0000    -2.06775749    -1.30534033    -0.00000009
    9 H                    1.0000     0.14995499    -2.39543538    -0.00000000
   10 H                    1.0000     2.21487789    -1.03693354    -0.00000013
   11 H                    1.0000     2.06806475     1.44895877    -0.00000010

         Total DFT energy =     -231.646321100685

                    DFT Final Alpha Molecular Orbital Analysis
                    ------------------------------------------

 Vector    1  Occ=1.000000D+00  E=-1.020525D+01

 Vector  305  Occ=0.000000D+00  E= 3.874565D+00

 Vector  306  Occ=0.000000D+00  E= 3.900077D+00

 Vector  307  Occ=0.000000D+00  E= 3.910050D+00

 Vector  308  Occ=0.000000D+00  E= 3.921977D+00

 Vector  309  Occ=0.000000D+00  E= 3.926209D+00

 Vector  310  Occ=0.000000D+00  E= 3.952390D+00

 Vector  311  Occ=0.000000D+00  E= 3.958745D+00

 Vector  312  Occ=0.000000D+00  E= 3.962810D+00

 Vector  313  Occ=0.000000D+00  E= 3.989439D+00

 Vector  314  Occ=0.000000D+00  E= 3.994123D+00

 Vector  315  Occ=0.000000D+00  E= 4.010689D+00

 Vector  316  Occ=0.000000D+00  E= 4.033081D+00

 Vector  317  Occ=0.000000D+00  E= 4.060728D+00

 Vector  318  Occ=0.000000D+00  E= 4.069999D+00

 Vector  319  Occ=0.000000D+00  E= 4.102622D+00

 Vector  320  Occ=0.000000D+00  E= 4.103795D+00

 Vector  321  Occ=0.000000D+00  E= 4.105864D+00

 Vector  322  Occ=0.000000D+00  E= 4.153963D+00

 Vector  323  Occ=0.000000D+00  E= 4.206780D+00

 Vector  324  Occ=0.000000D+00  E= 4.230630D+00

 Vector  325  Occ=0.000000D+00  E= 4.236972D+00

 Vector  326  Occ=0.000000D+00  E= 4.330830D+00

 Vector  327  Occ=0.000000D+00  E= 4.345422D+00

 Vector  328  Occ=0.000000D+00  E= 4.390453D+00

 Vector  329  Occ=0.000000D+00  E= 4.420683D+00

 Vector  330  Occ=0.000000D+00  E= 4.444576D+00

 Vector  331  Occ=0.000000D+00  E= 4.462558D+00

 Vector  332  Occ=0.000000D+00  E= 4.485906D+00

 Vector  333  Occ=0.000000D+00  E= 4.490684D+00

 Vector  334  Occ=0.000000D+00  E= 4.506308D+00

 Vector  335  Occ=0.000000D+00  E= 4.520575D+00

 Vector  336  Occ=0.000000D+00  E= 4.575926D+00

 Vector  337  Occ=0.000000D+00  E= 4.627119D+00

 Vector  338  Occ=0.000000D+00  E= 4.651228D+00

 Vector  339  Occ=0.000000D+00  E= 4.658432D+00

 Vector  340  Occ=0.000000D+00  E= 4.705175D+00

 Vector  341  Occ=0.000000D+00  E= 4.720352D+00

 Vector  342  Occ=0.000000D+00  E= 4.750764D+00

 Vector  343  Occ=0.000000D+00  E= 4.754481D+00

 Vector  344  Occ=0.000000D+00  E= 4.767704D+00

 Vector  345  Occ=0.000000D+00  E= 4.802105D+00

 Vector  346  Occ=0.000000D+00  E= 4.805246D+00

 Vector  347  Occ=0.000000D+00  E= 4.807728D+00

 Vector  348  Occ=0.000000D+00  E= 4.822856D+00

 Vector  349  Occ=0.000000D+00  E= 4.857667D+00

 Vector  350  Occ=0.000000D+00  E= 4.903568D+00

 Vector  351  Occ=0.000000D+00  E= 4.933831D+00

 Vector  352  Occ=0.000000D+00  E= 4.949413D+00

 Vector  353  Occ=0.000000D+00  E= 4.960074D+00

 Vector  354  Occ=0.000000D+00  E= 4.982615D+00

 Vector  355  Occ=0.000000D+00  E= 5.085613D+00

 Vector  356  Occ=0.000000D+00  E= 5.088985D+00

 Vector  357  Occ=0.000000D+00  E= 5.093059D+00

 Vector  358  Occ=0.000000D+00  E= 5.166991D+00

 Vector  359  Occ=0.000000D+00  E= 5.260324D+00

 Vector  360  Occ=0.000000D+00  E= 5.323269D+00

 Vector  361  Occ=0.000000D+00  E= 5.323636D+00

 Vector  362  Occ=0.000000D+00  E= 5.410726D+00

 Vector  363  Occ=0.000000D+00  E= 5.415743D+00

 Vector  364  Occ=0.000000D+00  E= 5.436353D+00

 Vector  365  Occ=0.000000D+00  E= 5.620405D+00

 Vector  366  Occ=0.000000D+00  E= 5.635113D+00

 Vector  367  Occ=0.000000D+00  E= 5.682446D+00

 Vector  368  Occ=0.000000D+00  E= 5.749000D+00

 Vector  369  Occ=0.000000D+00  E= 5.802560D+00

 Vector  370  Occ=0.000000D+00  E= 5.919750D+00

 Vector  371  Occ=0.000000D+00  E= 5.930119D+00

 Vector  372  Occ=0.000000D+00  E= 6.047865D+00

 Vector  373  Occ=0.000000D+00  E= 6.165674D+00

 Vector  374  Occ=0.000000D+00  E= 6.253116D+00

 Vector  375  Occ=0.000000D+00  E= 6.406650D+00

 Vector  376  Occ=0.000000D+00  E= 6.449966D+00

 Vector  377  Occ=0.000000D+00  E= 6.604609D+00

 Vector  378  Occ=0.000000D+00  E= 6.864797D+00

 Vector  379  Occ=0.000000D+00  E= 1.504897D+01

 Vector  380  Occ=0.000000D+00  E= 1.506643D+01

 Vector  381  Occ=0.000000D+00  E= 1.597875D+01

 Vector  382  Occ=0.000000D+00  E= 1.764824D+01

 Vector  383  Occ=0.000000D+00  E= 1.800473D+01

 Vector  384  Occ=0.000000D+00  E= 1.806335D+01

     Multipole analysis of the density
     ---------------------------------

     L   x y z        total         alpha         beta         nuclear
     -   - - -        -----         -----         ----         -------
     0   0 0 0     -0.000000    -21.000000    -20.000000     41.000000

     1   1 0 0      0.021449      0.106848     -0.085399      0.000000
     1   0 1 0     -0.340491     -1.694572      1.354082     -0.000000
     1   0 0 1     -0.000001     -0.000001     -0.000000      0.000000

     2   2 0 0    -22.667615   -108.567457   -106.581818    192.481661
     2   1 1 0      0.184709     -0.470268     -1.103875      1.758852
     2   1 0 1      0.000000     -0.000001     -0.000001      0.000002
     2   0 2 0    -25.677446   -100.807892    -88.897088    164.027534
     2   0 1 1     -0.000005     -0.000004     -0.000003      0.000001

  Root   1         a              0.106296019 a.u.                2.8925 eV
     Dipole Oscillator Strength                    0.0012112536
  Root   2         a              0.126068544 a.u.                3.4305 eV
     Dipole Oscillator Strength                    0.0000000066
  Root   3         a              0.143227693 a.u.                3.8974 eV
     Dipole Oscillator Strength                    0.0000121787
  Root   4         a              0.170394511 a.u.                4.6367 eV
     Dipole Oscillator Strength                    0.0000022901
  Root   5         a              0.171412175 a.u.                4.6644 eV
     Dipole Oscillator Strength                    0.0002490998
  Root   6         a              0.173941630 a.u.                4.7332 eV
     Dipole Oscillator Strength                    0.0037531563
  Root   7         a              0.177210884 a.u.                4.8222 eV
     Dipole Oscillator Strength                    0.0000130100
  Root   8         a              0.191914428 a.u.                5.2223 eV
     Dipole Oscillator Strength                    0.0006901579
  Root   9         a              0.201775473 a.u.                5.4906 eV
     Dipole Oscillator Strength                    0.0064724142
  Root  10         a              0.211024313 a.u.                5.7423 eV
     Dipole Oscillator Strength                    0.0075584475
  Root  11         a              0.215668541 a.u.                5.8686 eV
     Dipole Oscillator Strength                    0.0015010145
  Root  12         a              0.223037825 a.u.                6.0692 eV
     Dipole Oscillator Strength                    0.0002775608
  Root  13         a              0.224550225 a.u.                6.1103 eV
     Dipole Oscillator Strength                    0.0041223453
  Root  14         a              0.228568330 a.u.                6.2197 eV
     Dipole Oscillator Strength                    0.0092174187
  Root  15         a              0.228593174 a.u.                6.2203 eV
     Dipole Oscillator Strength                    0.0000009953
  Root  16         a              0.229659065 a.u.                6.2493 eV
     Dipole Oscillator Strength                    0.0009866150
  Root  17         a              0.229984511 a.u.                6.2582 eV
     Dipole Oscillator Strength                    0.0000075168
  Root  18         a              0.232243737 a.u.                6.3197 eV
     Dipole Oscillator Strength                    0.0225472144
  Root  19         a              0.235381640 a.u.                6.4051 eV
     Dipole Oscillator Strength                    0.0001691452
  Root  20         a              0.241719195 a.u.                6.5775 eV
     Dipole Oscillator Strength                    0.0000021733
  Root  21         a              0.242598855 a.u.                6.6015 eV
     Dipole Oscillator Strength                    0.0951566307
  Root  22         a              0.245275468 a.u.                6.6743 eV
     Dipole Oscillator Strength                    0.0017974714
  Root  23         a              0.246368101 a.u.                6.7040 eV
     Dipole Oscillator Strength                    0.0333216478
  Root  24         a              0.247300950 a.u.                6.7294 eV
     Dipole Oscillator Strength                    0.0013616836
  Root  25         a              0.248315664 a.u.                6.7570 eV
     Dipole Oscillator Strength                    0.0000087305
  Root  26         a              0.251183153 a.u.                6.8350 eV
     Dipole Oscillator Strength                    0.0471652128
  Root  27         a              0.251971257 a.u.                6.8565 eV
     Dipole Oscillator Strength                    0.0100408113
  Root  28         a              0.252625684 a.u.                6.8743 eV
     Dipole Oscillator Strength                    0.0000453485
  Root  29         a              0.253988829 a.u.                6.9114 eV
     Dipole Oscillator Strength                    0.0000006199
  Root  30         a              0.254758182 a.u.                6.9323 eV
     Dipole Oscillator Strength                    0.3854708726
  Root  31         a              0.255403540 a.u.                6.9499 eV
     Dipole Oscillator Strength                    0.0692137624
  Root  32         a              0.260750387 a.u.                7.0954 eV
     Dipole Oscillator Strength                    0.0015883153
  Root  33         a              0.265400494 a.u.                7.2219 eV
     Dipole Oscillator Strength                    0.0000000003
  Root  34         a              0.267189576 a.u.                7.2706 eV
     Dipole Oscillator Strength                    0.2577776540
  Root  35         a              0.270809247 a.u.                7.3691 eV
     Dipole Oscillator Strength                    0.0000164910
  Root  36         a              0.271254034 a.u.                7.3812 eV
     Dipole Oscillator Strength                    0.0004314147
  Root  37         a              0.271753893 a.u.                7.3948 eV
     Dipole Oscillator Strength                    0.0478493703
  Root  38         a              0.271807357 a.u.                7.3963 eV
     Dipole Oscillator Strength                    0.0001114329
  Root  39         a              0.272289090 a.u.                7.4094 eV
     Dipole Oscillator Strength                    0.0000009231
  Root  40         a              0.272509798 a.u.                7.4154 eV
     Dipole Oscillator Strength                    0.0003123594
 Total times  cpu:     3023.4s     wall:     3116.5s
