============================== echo of input deck ==============================
echo
start

title "None"

geometry
C    -0.08742354    1.38753199    0.00000005
C    -1.26639436    0.69033438   -0.00000002
C    -1.16616706   -0.70413933   -0.00000002
C     0.08280907   -1.31429028    0.00000004
C     1.24532442   -0.55219924   -0.00000001
C     1.16973195    0.84382596    0.00000005
H    -2.23141865    1.17894616   -0.00000010
H    -2.06567715   -1.30621035   -0.00000009
H     0.15080973   -2.39354587    0.00000000
H     2.21329024   -1.03660612   -0.00000013
H     2.06579753    1.44969712   -0.00000010
symmetry c1
end

basis spherical
 * library "aug-cc-pvtz"
end

dft
 direct
 mult 2
 iterations 500
 xc b3lyp
end

tddft
 nroots 40
 notriplet
 algorithm 1
end
task tddft energy
================================================================================

 Output coordinates in angstroms (scale by  1.889725989 to convert to a.u.)

  No.       Tag          Charge          X              Y              Z
 ---- ---------------- ---------- -------------- -------------- --------------
    1 C                    6.0000    -0.08742560     1.38756463     0.00000005
    2 C                    6.0000    -1.26639642     0.69036702    -0.00000002
    3 C                    6.0000    -1.16616912    -0.70410669    -0.00000002
    4 C                    6.0000     0.08280701    -1.31425764     0.00000004
    5 C                    6.0000     1.24532236    -0.55216660    -0.00000001
    6 C                    6.0000     1.16972989     0.84385860     0.00000005
    7 H                    1.0000    -2.23142071     1.17897880    -0.00000010
    8 H                    1.0000    -2.06567921    -1.30617771    -0.00000009
    9 H                    1.0000     0.15080767    -2.39351323    -0.00000000
   10 H                    1.0000     2.21328818    -1.03657348    -0.00000013
   11 H                    1.0000     2.06579547     1.44972976    -0.00000010

         Total DFT energy =     -231.646312391369

                    DFT Final Alpha Molecular Orbital Analysis
                    ------------------------------------------

 Vector    1  Occ=1.000000D+00  E=-1.020494D+01

 Vector  305  Occ=0.000000D+00  E= 3.875252D+00

 Vector  306  Occ=0.000000D+00  E= 3.900962D+00

 Vector  307  Occ=0.000000D+00  E= 3.911064D+00

 Vector  308  Occ=0.000000D+00  E= 3.923812D+00

 Vector  309  Occ=0.000000D+00  E= 3.928424D+00

 Vector  310  Occ=0.000000D+00  E= 3.954868D+00

 Vector  311  Occ=0.000000D+00  E= 3.959279D+00

 Vector  312  Occ=0.000000D+00  E= 3.964599D+00

 Vector  313  Occ=0.000000D+00  E= 3.991013D+00

 Vector  314  Occ=0.000000D+00  E= 3.993762D+00

 Vector  315  Occ=0.000000D+00  E= 4.012284D+00

 Vector  316  Occ=0.000000D+00  E= 4.034205D+00

 Vector  317  Occ=0.000000D+00  E= 4.062537D+00

 Vector  318  Occ=0.000000D+00  E= 4.071339D+00

 Vector  319  Occ=0.000000D+00  E= 4.104907D+00

 Vector  320  Occ=0.000000D+00  E= 4.105471D+00

 Vector  321  Occ=0.000000D+00  E= 4.107068D+00

 Vector  322  Occ=0.000000D+00  E= 4.155023D+00

 Vector  323  Occ=0.000000D+00  E= 4.207951D+00

 Vector  324  Occ=0.000000D+00  E= 4.231094D+00

 Vector  325  Occ=0.000000D+00  E= 4.237739D+00

 Vector  326  Occ=0.000000D+00  E= 4.332384D+00

 Vector  327  Occ=0.000000D+00  E= 4.348009D+00

 Vector  328  Occ=0.000000D+00  E= 4.392684D+00

 Vector  329  Occ=0.000000D+00  E= 4.422338D+00

 Vector  330  Occ=0.000000D+00  E= 4.445980D+00

 Vector  331  Occ=0.000000D+00  E= 4.463728D+00

 Vector  332  Occ=0.000000D+00  E= 4.489006D+00

 Vector  333  Occ=0.000000D+00  E= 4.493207D+00

 Vector  334  Occ=0.000000D+00  E= 4.508131D+00

 Vector  335  Occ=0.000000D+00  E= 4.523838D+00

 Vector  336  Occ=0.000000D+00  E= 4.578889D+00

 Vector  337  Occ=0.000000D+00  E= 4.628857D+00

 Vector  338  Occ=0.000000D+00  E= 4.652721D+00

 Vector  339  Occ=0.000000D+00  E= 4.660795D+00

 Vector  340  Occ=0.000000D+00  E= 4.706563D+00

 Vector  341  Occ=0.000000D+00  E= 4.720395D+00

 Vector  342  Occ=0.000000D+00  E= 4.750826D+00

 Vector  343  Occ=0.000000D+00  E= 4.756565D+00

 Vector  344  Occ=0.000000D+00  E= 4.769757D+00

 Vector  345  Occ=0.000000D+00  E= 4.803329D+00

 Vector  346  Occ=0.000000D+00  E= 4.805848D+00

 Vector  347  Occ=0.000000D+00  E= 4.808790D+00

 Vector  348  Occ=0.000000D+00  E= 4.824251D+00

 Vector  349  Occ=0.000000D+00  E= 4.858385D+00

 Vector  350  Occ=0.000000D+00  E= 4.905427D+00

 Vector  351  Occ=0.000000D+00  E= 4.935150D+00

 Vector  352  Occ=0.000000D+00  E= 4.953564D+00

 Vector  353  Occ=0.000000D+00  E= 4.961999D+00

 Vector  354  Occ=0.000000D+00  E= 4.984630D+00

 Vector  355  Occ=0.000000D+00  E= 5.087574D+00

 Vector  356  Occ=0.000000D+00  E= 5.090872D+00

 Vector  357  Occ=0.000000D+00  E= 5.094948D+00

 Vector  358  Occ=0.000000D+00  E= 5.169135D+00

 Vector  359  Occ=0.000000D+00  E= 5.262310D+00

 Vector  360  Occ=0.000000D+00  E= 5.325669D+00

 Vector  361  Occ=0.000000D+00  E= 5.325944D+00

 Vector  362  Occ=0.000000D+00  E= 5.413020D+00

 Vector  363  Occ=0.000000D+00  E= 5.419221D+00

 Vector  364  Occ=0.000000D+00  E= 5.439360D+00

 Vector  365  Occ=0.000000D+00  E= 5.620746D+00

 Vector  366  Occ=0.000000D+00  E= 5.637492D+00

 Vector  367  Occ=0.000000D+00  E= 5.684939D+00

 Vector  368  Occ=0.000000D+00  E= 5.751558D+00

 Vector  369  Occ=0.000000D+00  E= 5.805424D+00

 Vector  370  Occ=0.000000D+00  E= 5.922745D+00

 Vector  371  Occ=0.000000D+00  E= 5.933050D+00

 Vector  372  Occ=0.000000D+00  E= 6.050141D+00

 Vector  373  Occ=0.000000D+00  E= 6.168215D+00

 Vector  374  Occ=0.000000D+00  E= 6.256219D+00

 Vector  375  Occ=0.000000D+00  E= 6.411023D+00

 Vector  376  Occ=0.000000D+00  E= 6.453455D+00

 Vector  377  Occ=0.000000D+00  E= 6.608415D+00

 Vector  378  Occ=0.000000D+00  E= 6.870802D+00

 Vector  379  Occ=0.000000D+00  E= 1.507758D+01

 Vector  380  Occ=0.000000D+00  E= 1.509292D+01

 Vector  381  Occ=0.000000D+00  E= 1.599384D+01

 Vector  382  Occ=0.000000D+00  E= 1.768360D+01

 Vector  383  Occ=0.000000D+00  E= 1.803322D+01

 Vector  384  Occ=0.000000D+00  E= 1.808735D+01

     Multipole analysis of the density
     ---------------------------------

     L   x y z        total         alpha         beta         nuclear
     -   - - -        -----         -----         ----         -------
     0   0 0 0     -0.000000    -21.000000    -20.000000     41.000000

     1   1 0 0      0.021355      0.106682     -0.085327      0.000000
     1   0 1 0     -0.340441     -1.693945      1.353504      0.000000
     1   0 0 1     -0.000001     -0.000001     -0.000000      0.000000

     2   2 0 0    -22.669696   -108.426029   -106.434796    192.191130
     2   1 1 0      0.190521     -0.491015     -1.117950      1.799486
     2   1 0 1      0.000000     -0.000001     -0.000001      0.000002
     2   0 2 0    -25.681508   -100.663883    -88.761634    163.744009
     2   0 1 1     -0.000005     -0.000003     -0.000003      0.000001

  Root   1         a              0.106249155 a.u.                2.8912 eV
     Dipole Oscillator Strength                    0.0012106496
  Root   2         a              0.126176445 a.u.                3.4334 eV
     Dipole Oscillator Strength                    0.0000000000
  Root   3         a              0.143665656 a.u.                3.9093 eV
     Dipole Oscillator Strength                    0.0000125145
  Root   4         a              0.170524851 a.u.                4.6402 eV
     Dipole Oscillator Strength                    0.0000000000
  Root   5         a              0.171787979 a.u.                4.6746 eV
     Dipole Oscillator Strength                    0.0002489126
  Root   6         a              0.174007395 a.u.                4.7350 eV
     Dipole Oscillator Strength                    0.0037948906
  Root   7         a              0.177581335 a.u.                4.8322 eV
     Dipole Oscillator Strength                    0.0000142863
  Root   8         a              0.192301488 a.u.                5.2328 eV
     Dipole Oscillator Strength                    0.0006741297
  Root   9         a              0.202142889 a.u.                5.5006 eV
     Dipole Oscillator Strength                    0.0064737677
  Root  10         a              0.210867199 a.u.                5.7380 eV
     Dipole Oscillator Strength                    0.0075949450
  Root  11         a              0.215583611 a.u.                5.8663 eV
     Dipole Oscillator Strength                    0.0014666762
  Root  12         a              0.223160301 a.u.                6.0725 eV
     Dipole Oscillator Strength                    0.0002746619
  Root  13         a              0.224880878 a.u.                6.1193 eV
     Dipole Oscillator Strength                    0.0036958822
  Root  14         a              0.228424648 a.u.                6.2158 eV
     Dipole Oscillator Strength                    0.0093093180
  Root  15         a              0.228761094 a.u.                6.2249 eV
     Dipole Oscillator Strength                    0.0000000000
  Root  16         a              0.229751120 a.u.                6.2518 eV
     Dipole Oscillator Strength                    0.0009740370
  Root  17         a              0.230116853 a.u.                6.2618 eV
     Dipole Oscillator Strength                    0.0000000001
  Root  18         a              0.232139069 a.u.                6.3168 eV
     Dipole Oscillator Strength                    0.0223643843
  Root  19         a              0.235740856 a.u.                6.4148 eV
     Dipole Oscillator Strength                    0.0001598684
  Root  20         a              0.241858006 a.u.                6.5813 eV
     Dipole Oscillator Strength                    0.0000000001
  Root  21         a              0.242686254 a.u.                6.6038 eV
     Dipole Oscillator Strength                    0.0915679651
  Root  22         a              0.245449980 a.u.                6.6790 eV
     Dipole Oscillator Strength                    0.0020636045
  Root  23         a              0.246555594 a.u.                6.7091 eV
     Dipole Oscillator Strength                    0.0330535883
  Root  24         a              0.247446372 a.u.                6.7334 eV
     Dipole Oscillator Strength                    0.0013795960
  Root  25         a              0.248436283 a.u.                6.7603 eV
     Dipole Oscillator Strength                    0.0000000001
  Root  26         a              0.251144715 a.u.                6.8340 eV
     Dipole Oscillator Strength                    0.0364791179
  Root  27         a              0.252104610 a.u.                6.8601 eV
     Dipole Oscillator Strength                    0.0100469453
  Root  28         a              0.252828530 a.u.                6.8798 eV
     Dipole Oscillator Strength                    0.0000000004
  Root  29         a              0.254147228 a.u.                6.9157 eV
     Dipole Oscillator Strength                    0.0000000006
  Root  30         a              0.255038174 a.u.                6.9399 eV
     Dipole Oscillator Strength                    0.3950964564
  Root  31         a              0.255324246 a.u.                6.9477 eV
     Dipole Oscillator Strength                    0.0687656356
  Root  32         a              0.260576142 a.u.                7.0906 eV
     Dipole Oscillator Strength                    0.0015835740
  Root  33         a              0.265581307 a.u.                7.2268 eV
     Dipole Oscillator Strength                    0.0000000000
  Root  34         a              0.267260034 a.u.                7.2725 eV
     Dipole Oscillator Strength                    0.2524289941
  Root  35         a              0.271037931 a.u.                7.3753 eV
     Dipole Oscillator Strength                    0.0000150978
  Root  36         a              0.271666415 a.u.                7.3924 eV
     Dipole Oscillator Strength                    0.0577013584
  Root  37         a              0.271904265 a.u.                7.3989 eV
     Dipole Oscillator Strength                    0.0004338953
  Root  38         a              0.272015619 a.u.                7.4019 eV
     Dipole Oscillator Strength                    0.0001141498
  Root  39         a              0.272447387 a.u.                7.4137 eV
     Dipole Oscillator Strength                    0.0000000001
  Root  40         a              0.272699951 a.u.                7.4205 eV
     Dipole Oscillator Strength                    0.0003127164
 Total times  cpu:     2936.2s     wall:     3032.8s
