============================== echo of input deck ==============================
echo
start

title "None"

geometry
C    -0.08747224    1.38830409   -0.00013419
C    -1.26735482    0.69112092    0.00049866
C    -1.16733630   -0.70470852   -0.00015040
C     0.08291598   -1.31598916   -0.00049931
C     1.24655610   -0.55261762   -0.00015076
C     1.17058620    0.84472727    0.00049891
H    -2.23189055    1.18090100   -0.00283650
H    -2.06748412   -1.30603725    0.00093159
H     0.15092404   -2.39537432    0.00305966
H     2.21506130   -1.03620839    0.00093331
H     2.06601969    1.45169726   -0.00283674
symmetry c1
end

basis spherical
 * library "aug-cc-pvtz"
end

dft
 direct
 mult 2
 iterations 500
 xc b3lyp
end

tddft
 nroots 40
 notriplet
 algorithm 1
end
task tddft energy
================================================================================

 Output coordinates in angstroms (scale by  1.889725989 to convert to a.u.)

  No.       Tag          Charge          X              Y              Z
 ---- ---------------- ---------- -------------- -------------- --------------
    1 C                    6.0000    -0.08747224     1.38830409    -0.00012514
    2 C                    6.0000    -1.26735482     0.69112092     0.00050771
    3 C                    6.0000    -1.16733630    -0.70470852    -0.00014135
    4 C                    6.0000     0.08291598    -1.31598916    -0.00049026
    5 C                    6.0000     1.24655610    -0.55261762    -0.00014171
    6 C                    6.0000     1.17058620     0.84472727     0.00050796
    7 H                    1.0000    -2.23189055     1.18090100    -0.00282745
    8 H                    1.0000    -2.06748412    -1.30603725     0.00094064
    9 H                    1.0000     0.15092404    -2.39537432     0.00306871
   10 H                    1.0000     2.21506130    -1.03620839     0.00094236
   11 H                    1.0000     2.06601969     1.45169726    -0.00282769

         Total DFT energy =     -231.646325359926

                    DFT Final Alpha Molecular Orbital Analysis
                    ------------------------------------------

 Vector    1  Occ=1.000000D+00  E=-1.020526D+01

 Vector  305  Occ=0.000000D+00  E= 3.874619D+00

 Vector  306  Occ=0.000000D+00  E= 3.900095D+00

 Vector  307  Occ=0.000000D+00  E= 3.910063D+00

 Vector  308  Occ=0.000000D+00  E= 3.922023D+00

 Vector  309  Occ=0.000000D+00  E= 3.926178D+00

 Vector  310  Occ=0.000000D+00  E= 3.952364D+00

 Vector  311  Occ=0.000000D+00  E= 3.958700D+00

 Vector  312  Occ=0.000000D+00  E= 3.962835D+00

 Vector  313  Occ=0.000000D+00  E= 3.989437D+00

 Vector  314  Occ=0.000000D+00  E= 3.994124D+00

 Vector  315  Occ=0.000000D+00  E= 4.010688D+00

 Vector  316  Occ=0.000000D+00  E= 4.033086D+00

 Vector  317  Occ=0.000000D+00  E= 4.060724D+00

 Vector  318  Occ=0.000000D+00  E= 4.070030D+00

 Vector  319  Occ=0.000000D+00  E= 4.102907D+00

 Vector  320  Occ=0.000000D+00  E= 4.103260D+00

 Vector  321  Occ=0.000000D+00  E= 4.106107D+00

 Vector  322  Occ=0.000000D+00  E= 4.153996D+00

 Vector  323  Occ=0.000000D+00  E= 4.206781D+00

 Vector  324  Occ=0.000000D+00  E= 4.230589D+00

 Vector  325  Occ=0.000000D+00  E= 4.236970D+00

 Vector  326  Occ=0.000000D+00  E= 4.330818D+00

 Vector  327  Occ=0.000000D+00  E= 4.345459D+00

 Vector  328  Occ=0.000000D+00  E= 4.390499D+00

 Vector  329  Occ=0.000000D+00  E= 4.420616D+00

 Vector  330  Occ=0.000000D+00  E= 4.444556D+00

 Vector  331  Occ=0.000000D+00  E= 4.462581D+00

 Vector  332  Occ=0.000000D+00  E= 4.485977D+00

 Vector  333  Occ=0.000000D+00  E= 4.490628D+00

 Vector  334  Occ=0.000000D+00  E= 4.506260D+00

 Vector  335  Occ=0.000000D+00  E= 4.520593D+00

 Vector  336  Occ=0.000000D+00  E= 4.575935D+00

 Vector  337  Occ=0.000000D+00  E= 4.627123D+00

 Vector  338  Occ=0.000000D+00  E= 4.651226D+00

 Vector  339  Occ=0.000000D+00  E= 4.658425D+00

 Vector  340  Occ=0.000000D+00  E= 4.705173D+00

 Vector  341  Occ=0.000000D+00  E= 4.720376D+00

 Vector  342  Occ=0.000000D+00  E= 4.750777D+00

 Vector  343  Occ=0.000000D+00  E= 4.754452D+00

 Vector  344  Occ=0.000000D+00  E= 4.767741D+00

 Vector  345  Occ=0.000000D+00  E= 4.802226D+00

 Vector  346  Occ=0.000000D+00  E= 4.805043D+00

 Vector  347  Occ=0.000000D+00  E= 4.807748D+00

 Vector  348  Occ=0.000000D+00  E= 4.822858D+00

 Vector  349  Occ=0.000000D+00  E= 4.857673D+00

 Vector  350  Occ=0.000000D+00  E= 4.903568D+00

 Vector  351  Occ=0.000000D+00  E= 4.933799D+00

 Vector  352  Occ=0.000000D+00  E= 4.949668D+00

 Vector  353  Occ=0.000000D+00  E= 4.959757D+00

 Vector  354  Occ=0.000000D+00  E= 4.982615D+00

 Vector  355  Occ=0.000000D+00  E= 5.085750D+00

 Vector  356  Occ=0.000000D+00  E= 5.088850D+00

 Vector  357  Occ=0.000000D+00  E= 5.093059D+00

 Vector  358  Occ=0.000000D+00  E= 5.167010D+00

 Vector  359  Occ=0.000000D+00  E= 5.260324D+00

 Vector  360  Occ=0.000000D+00  E= 5.323271D+00

 Vector  361  Occ=0.000000D+00  E= 5.323601D+00

 Vector  362  Occ=0.000000D+00  E= 5.410775D+00

 Vector  363  Occ=0.000000D+00  E= 5.415657D+00

 Vector  364  Occ=0.000000D+00  E= 5.436411D+00

 Vector  365  Occ=0.000000D+00  E= 5.620431D+00

 Vector  366  Occ=0.000000D+00  E= 5.635069D+00

 Vector  367  Occ=0.000000D+00  E= 5.682449D+00

 Vector  368  Occ=0.000000D+00  E= 5.749042D+00

 Vector  369  Occ=0.000000D+00  E= 5.802528D+00

 Vector  370  Occ=0.000000D+00  E= 5.919749D+00

 Vector  371  Occ=0.000000D+00  E= 5.930056D+00

 Vector  372  Occ=0.000000D+00  E= 6.047817D+00

 Vector  373  Occ=0.000000D+00  E= 6.165662D+00

 Vector  374  Occ=0.000000D+00  E= 6.253107D+00

 Vector  375  Occ=0.000000D+00  E= 6.406660D+00

 Vector  376  Occ=0.000000D+00  E= 6.449952D+00

 Vector  377  Occ=0.000000D+00  E= 6.604552D+00

 Vector  378  Occ=0.000000D+00  E= 6.864773D+00

 Vector  379  Occ=0.000000D+00  E= 1.504891D+01

 Vector  380  Occ=0.000000D+00  E= 1.506636D+01

 Vector  381  Occ=0.000000D+00  E= 1.597862D+01

 Vector  382  Occ=0.000000D+00  E= 1.764794D+01

 Vector  383  Occ=0.000000D+00  E= 1.800494D+01

 Vector  384  Occ=0.000000D+00  E= 1.806311D+01

     Multipole analysis of the density
     ---------------------------------

     L   x y z        total         alpha         beta         nuclear
     -   - - -        -----         -----         ----         -------
     0   0 0 0     -0.000000    -21.000000    -20.000000     41.000000

     1   1 0 0      0.021581      0.106833     -0.085252     -0.000000
     1   0 1 0     -0.340552     -1.694601      1.354049      0.000000
     1   0 0 1     -0.000251      0.000412     -0.000663      0.000000

     2   2 0 0    -22.668331   -108.564880   -106.579944    192.476493
     2   1 1 0      0.190314     -0.490519     -1.118463      1.799295
     2   1 0 1      0.000784     -0.000696     -0.000424      0.001904
     2   0 2 0    -25.676891   -100.810461    -88.898989    164.032559
     2   0 1 1     -0.012400      0.011006      0.006676     -0.030081

  Root   1         a              0.106293945 a.u.                2.8924 eV
     Dipole Oscillator Strength                    0.0012112459
  Root   2         a              0.126063209 a.u.                3.4304 eV
     Dipole Oscillator Strength                    0.0000000000
  Root   3         a              0.143225742 a.u.                3.8974 eV
     Dipole Oscillator Strength                    0.0000121783
  Root   4         a              0.170397288 a.u.                4.6367 eV
     Dipole Oscillator Strength                    0.0000000035
  Root   5         a              0.171411501 a.u.                4.6643 eV
     Dipole Oscillator Strength                    0.0002491373
  Root   6         a              0.173941610 a.u.                4.7332 eV
     Dipole Oscillator Strength                    0.0037551509
  Root   7         a              0.177209360 a.u.                4.8221 eV
     Dipole Oscillator Strength                    0.0000131910
  Root   8         a              0.191912231 a.u.                5.2222 eV
     Dipole Oscillator Strength                    0.0006901096
  Root   9         a              0.201773512 a.u.                5.4905 eV
     Dipole Oscillator Strength                    0.0064712023
  Root  10         a              0.211027172 a.u.                5.7423 eV
     Dipole Oscillator Strength                    0.0075580490
  Root  11         a              0.215668274 a.u.                5.8686 eV
     Dipole Oscillator Strength                    0.0015009068
  Root  12         a              0.223038082 a.u.                6.0692 eV
     Dipole Oscillator Strength                    0.0002776422
  Root  13         a              0.224549072 a.u.                6.1103 eV
     Dipole Oscillator Strength                    0.0041248323
  Root  14         a              0.228570982 a.u.                6.2197 eV
     Dipole Oscillator Strength                    0.0090873871
  Root  15         a              0.228593308 a.u.                6.2203 eV
     Dipole Oscillator Strength                    0.0001277206
  Root  16         a              0.229659466 a.u.                6.2494 eV
     Dipole Oscillator Strength                    0.0009963931
  Root  17         a              0.229981276 a.u.                6.2581 eV
     Dipole Oscillator Strength                    0.0000000003
  Root  18         a              0.232246062 a.u.                6.3197 eV
     Dipole Oscillator Strength                    0.0225452453
  Root  19         a              0.235373946 a.u.                6.4049 eV
     Dipole Oscillator Strength                    0.0001863064
  Root  20         a              0.241719690 a.u.                6.5775 eV
     Dipole Oscillator Strength                    0.0000000048
  Root  21         a              0.242600729 a.u.                6.6015 eV
     Dipole Oscillator Strength                    0.0951458016
  Root  22         a              0.245274608 a.u.                6.6743 eV
     Dipole Oscillator Strength                    0.0018092267
  Root  23         a              0.246367822 a.u.                6.7040 eV
     Dipole Oscillator Strength                    0.0333355102
  Root  24         a              0.247300068 a.u.                6.7294 eV
     Dipole Oscillator Strength                    0.0013552743
  Root  25         a              0.248314298 a.u.                6.7570 eV
     Dipole Oscillator Strength                    0.0000002361
  Root  26         a              0.251184797 a.u.                6.8351 eV
     Dipole Oscillator Strength                    0.0473198774
  Root  27         a              0.251973558 a.u.                6.8566 eV
     Dipole Oscillator Strength                    0.0100869605
  Root  28         a              0.252620925 a.u.                6.8742 eV
     Dipole Oscillator Strength                    0.0000009481
  Root  29         a              0.253986991 a.u.                6.9113 eV
     Dipole Oscillator Strength                    0.0000358741
  Root  30         a              0.254756047 a.u.                6.9323 eV
     Dipole Oscillator Strength                    0.3852761944
  Root  31         a              0.255406244 a.u.                6.9500 eV
     Dipole Oscillator Strength                    0.0692249530
  Root  32         a              0.260751744 a.u.                7.0954 eV
     Dipole Oscillator Strength                    0.0015890664
  Root  33         a              0.265400934 a.u.                7.2219 eV
     Dipole Oscillator Strength                    0.0000001248
  Root  34         a              0.267189492 a.u.                7.2706 eV
     Dipole Oscillator Strength                    0.2578490181
  Root  35         a              0.270808583 a.u.                7.3691 eV
     Dipole Oscillator Strength                    0.0000164331
  Root  36         a              0.271251218 a.u.                7.3811 eV
     Dipole Oscillator Strength                    0.0004303652
  Root  37         a              0.271755851 a.u.                7.3949 eV
     Dipole Oscillator Strength                    0.0476583327
  Root  38         a              0.271807406 a.u.                7.3963 eV
     Dipole Oscillator Strength                    0.0001444577
  Root  39         a              0.272285521 a.u.                7.4093 eV
     Dipole Oscillator Strength                    0.0000001580
  Root  40         a              0.272509731 a.u.                7.4154 eV
     Dipole Oscillator Strength                    0.0003142185
 Total times  cpu:     3669.6s     wall:     3784.9s
