============================== echo of input deck ==============================
echo
start

title "None"

geometry
C    -0.08747224    1.38830409    0.00000005
C    -1.26735482    0.69112092    0.00044150
C    -1.16733630   -0.70470852   -0.00054024
C     0.08291598   -1.31598916   -0.00000021
C     1.24655610   -0.55261762    0.00054034
C     1.17058620    0.84472727   -0.00044129
H    -2.23189055    1.18090100   -0.00225925
H    -2.06748412   -1.30603725    0.00290035
H     0.15092404   -2.39537432    0.00000131
H     2.21506130   -1.03620839   -0.00290088
H     2.06601969    1.45169726    0.00225792
symmetry c1
end

basis spherical
 * library "aug-cc-pvtz"
end

dft
 direct
 mult 2
 iterations 500
 xc b3lyp
end

tddft
 nroots 40
 notriplet
 algorithm 1
end
task tddft energy
================================================================================

 Output coordinates in angstroms (scale by  1.889725989 to convert to a.u.)

  No.       Tag          Charge          X              Y              Z
 ---- ---------------- ---------- -------------- -------------- --------------
    1 C                    6.0000    -0.08747224     1.38830409     0.00000004
    2 C                    6.0000    -1.26735482     0.69112092     0.00044149
    3 C                    6.0000    -1.16733630    -0.70470852    -0.00054025
    4 C                    6.0000     0.08291598    -1.31598916    -0.00000022
    5 C                    6.0000     1.24655610    -0.55261762     0.00054033
    6 C                    6.0000     1.17058620     0.84472727    -0.00044130
    7 H                    1.0000    -2.23189055     1.18090100    -0.00225926
    8 H                    1.0000    -2.06748412    -1.30603725     0.00290034
    9 H                    1.0000     0.15092404    -2.39537432     0.00000130
   10 H                    1.0000     2.21506130    -1.03620839    -0.00290089
   11 H                    1.0000     2.06601969     1.45169726     0.00225791

         Total DFT energy =     -231.646324886821

                    DFT Final Alpha Molecular Orbital Analysis
                    ------------------------------------------

 Vector    1  Occ=1.000000D+00  E=-1.020525D+01

 Vector  305  Occ=0.000000D+00  E= 3.874551D+00

 Vector  306  Occ=0.000000D+00  E= 3.900146D+00

 Vector  307  Occ=0.000000D+00  E= 3.910058D+00

 Vector  308  Occ=0.000000D+00  E= 3.921964D+00

 Vector  309  Occ=0.000000D+00  E= 3.926179D+00

 Vector  310  Occ=0.000000D+00  E= 3.952361D+00

 Vector  311  Occ=0.000000D+00  E= 3.958609D+00

 Vector  312  Occ=0.000000D+00  E= 3.962900D+00

 Vector  313  Occ=0.000000D+00  E= 3.989275D+00

 Vector  314  Occ=0.000000D+00  E= 3.994333D+00

 Vector  315  Occ=0.000000D+00  E= 4.010694D+00

 Vector  316  Occ=0.000000D+00  E= 4.033098D+00

 Vector  317  Occ=0.000000D+00  E= 4.060722D+00

 Vector  318  Occ=0.000000D+00  E= 4.069993D+00

 Vector  319  Occ=0.000000D+00  E= 4.102873D+00

 Vector  320  Occ=0.000000D+00  E= 4.103526D+00

 Vector  321  Occ=0.000000D+00  E= 4.105905D+00

 Vector  322  Occ=0.000000D+00  E= 4.153995D+00

 Vector  323  Occ=0.000000D+00  E= 4.206751D+00

 Vector  324  Occ=0.000000D+00  E= 4.230615D+00

 Vector  325  Occ=0.000000D+00  E= 4.236969D+00

 Vector  326  Occ=0.000000D+00  E= 4.330820D+00

 Vector  327  Occ=0.000000D+00  E= 4.345458D+00

 Vector  328  Occ=0.000000D+00  E= 4.390490D+00

 Vector  329  Occ=0.000000D+00  E= 4.420659D+00

 Vector  330  Occ=0.000000D+00  E= 4.444489D+00

 Vector  331  Occ=0.000000D+00  E= 4.462613D+00

 Vector  332  Occ=0.000000D+00  E= 4.485987D+00

 Vector  333  Occ=0.000000D+00  E= 4.490600D+00

 Vector  334  Occ=0.000000D+00  E= 4.506299D+00

 Vector  335  Occ=0.000000D+00  E= 4.520545D+00

 Vector  336  Occ=0.000000D+00  E= 4.575939D+00

 Vector  337  Occ=0.000000D+00  E= 4.627113D+00

 Vector  338  Occ=0.000000D+00  E= 4.651234D+00

 Vector  339  Occ=0.000000D+00  E= 4.658441D+00

 Vector  340  Occ=0.000000D+00  E= 4.705188D+00

 Vector  341  Occ=0.000000D+00  E= 4.720373D+00

 Vector  342  Occ=0.000000D+00  E= 4.750787D+00

 Vector  343  Occ=0.000000D+00  E= 4.754474D+00

 Vector  344  Occ=0.000000D+00  E= 4.767734D+00

 Vector  345  Occ=0.000000D+00  E= 4.802285D+00

 Vector  346  Occ=0.000000D+00  E= 4.804864D+00

 Vector  347  Occ=0.000000D+00  E= 4.807841D+00

 Vector  348  Occ=0.000000D+00  E= 4.822819D+00

 Vector  349  Occ=0.000000D+00  E= 4.857653D+00

 Vector  350  Occ=0.000000D+00  E= 4.903559D+00

 Vector  351  Occ=0.000000D+00  E= 4.933774D+00

 Vector  352  Occ=0.000000D+00  E= 4.949728D+00

 Vector  353  Occ=0.000000D+00  E= 4.959771D+00

 Vector  354  Occ=0.000000D+00  E= 4.982612D+00

 Vector  355  Occ=0.000000D+00  E= 5.085773D+00

 Vector  356  Occ=0.000000D+00  E= 5.088200D+00

 Vector  357  Occ=0.000000D+00  E= 5.093619D+00

 Vector  358  Occ=0.000000D+00  E= 5.167088D+00

 Vector  359  Occ=0.000000D+00  E= 5.260265D+00

 Vector  360  Occ=0.000000D+00  E= 5.323259D+00

 Vector  361  Occ=0.000000D+00  E= 5.323636D+00

 Vector  362  Occ=0.000000D+00  E= 5.410757D+00

 Vector  363  Occ=0.000000D+00  E= 5.415691D+00

 Vector  364  Occ=0.000000D+00  E= 5.436367D+00

 Vector  365  Occ=0.000000D+00  E= 5.620450D+00

 Vector  366  Occ=0.000000D+00  E= 5.635097D+00

 Vector  367  Occ=0.000000D+00  E= 5.682450D+00

 Vector  368  Occ=0.000000D+00  E= 5.749022D+00

 Vector  369  Occ=0.000000D+00  E= 5.802513D+00

 Vector  370  Occ=0.000000D+00  E= 5.919772D+00

 Vector  371  Occ=0.000000D+00  E= 5.930050D+00

 Vector  372  Occ=0.000000D+00  E= 6.047789D+00

 Vector  373  Occ=0.000000D+00  E= 6.165671D+00

 Vector  374  Occ=0.000000D+00  E= 6.253102D+00

 Vector  375  Occ=0.000000D+00  E= 6.406631D+00

 Vector  376  Occ=0.000000D+00  E= 6.449944D+00

 Vector  377  Occ=0.000000D+00  E= 6.604533D+00

 Vector  378  Occ=0.000000D+00  E= 6.864754D+00

 Vector  379  Occ=0.000000D+00  E= 1.504894D+01

 Vector  380  Occ=0.000000D+00  E= 1.506632D+01

 Vector  381  Occ=0.000000D+00  E= 1.597868D+01

 Vector  382  Occ=0.000000D+00  E= 1.764794D+01

 Vector  383  Occ=0.000000D+00  E= 1.800495D+01

 Vector  384  Occ=0.000000D+00  E= 1.806311D+01

     Multipole analysis of the density
     ---------------------------------

     L   x y z        total         alpha         beta         nuclear
     -   - - -        -----         -----         ----         -------
     0   0 0 0     -0.000000    -21.000000    -20.000000     41.000000

     1   1 0 0      0.021581      0.106833     -0.085252     -0.000000
     1   0 1 0     -0.340552     -1.694600      1.354048      0.000000
     1   0 0 1     -0.000000     -0.000000     -0.000000     -0.000000

     2   2 0 0    -22.668361   -108.564898   -106.579956    192.476493
     2   1 1 0      0.190310     -0.490521     -1.118464      1.799295
     2   1 0 1     -0.001500      0.000848      0.002459     -0.004807
     2   0 2 0    -25.676864   -100.810447    -88.898976    164.032559
     2   0 1 1     -0.000098      0.000055      0.000156     -0.000309

  Root   1         a              0.106293764 a.u.                2.8924 eV
     Dipole Oscillator Strength                    0.0012112791
  Root   2         a              0.126063302 a.u.                3.4304 eV
     Dipole Oscillator Strength                    0.0000000154
  Root   3         a              0.143225745 a.u.                3.8974 eV
     Dipole Oscillator Strength                    0.0000121836
  Root   4         a              0.170397021 a.u.                4.6367 eV
     Dipole Oscillator Strength                    0.0000000113
  Root   5         a              0.171410210 a.u.                4.6643 eV
     Dipole Oscillator Strength                    0.0002491059
  Root   6         a              0.173942137 a.u.                4.7332 eV
     Dipole Oscillator Strength                    0.0037552128
  Root   7         a              0.177209331 a.u.                4.8221 eV
     Dipole Oscillator Strength                    0.0000130056
  Root   8         a              0.191912657 a.u.                5.2222 eV
     Dipole Oscillator Strength                    0.0006899656
  Root   9         a              0.201773260 a.u.                5.4905 eV
     Dipole Oscillator Strength                    0.0064724368
  Root  10         a              0.211027152 a.u.                5.7423 eV
     Dipole Oscillator Strength                    0.0075583109
  Root  11         a              0.215663943 a.u.                5.8685 eV
     Dipole Oscillator Strength                    0.0015003074
  Root  12         a              0.223038180 a.u.                6.0692 eV
     Dipole Oscillator Strength                    0.0002778466
  Root  13         a              0.224549095 a.u.                6.1103 eV
     Dipole Oscillator Strength                    0.0041253669
  Root  14         a              0.228571244 a.u.                6.2197 eV
     Dipole Oscillator Strength                    0.0092151577
  Root  15         a              0.228593364 a.u.                6.2203 eV
     Dipole Oscillator Strength                    0.0000000001
  Root  16         a              0.229659433 a.u.                6.2494 eV
     Dipole Oscillator Strength                    0.0009951786
  Root  17         a              0.229981691 a.u.                6.2581 eV
     Dipole Oscillator Strength                    0.0000001152
  Root  18         a              0.232246075 a.u.                6.3197 eV
     Dipole Oscillator Strength                    0.0225501988
  Root  19         a              0.235380772 a.u.                6.4050 eV
     Dipole Oscillator Strength                    0.0001700095
  Root  20         a              0.241720004 a.u.                6.5775 eV
     Dipole Oscillator Strength                    0.0000005579
  Root  21         a              0.242598472 a.u.                6.6014 eV
     Dipole Oscillator Strength                    0.0951500997
  Root  22         a              0.245274885 a.u.                6.6743 eV
     Dipole Oscillator Strength                    0.0018029708
  Root  23         a              0.246368124 a.u.                6.7040 eV
     Dipole Oscillator Strength                    0.0333319254
  Root  24         a              0.247300510 a.u.                6.7294 eV
     Dipole Oscillator Strength                    0.0013580011
  Root  25         a              0.248314208 a.u.                6.7570 eV
     Dipole Oscillator Strength                    0.0000000030
  Root  26         a              0.251183773 a.u.                6.8351 eV
     Dipole Oscillator Strength                    0.0472678170
  Root  27         a              0.251973614 a.u.                6.8566 eV
     Dipole Oscillator Strength                    0.0100870774
  Root  28         a              0.252621351 a.u.                6.8742 eV
     Dipole Oscillator Strength                    0.0000000011
  Root  29         a              0.253987542 a.u.                6.9114 eV
     Dipole Oscillator Strength                    0.0000000027
  Root  30         a              0.254755631 a.u.                6.9323 eV
     Dipole Oscillator Strength                    0.3853489847
  Root  31         a              0.255406239 a.u.                6.9500 eV
     Dipole Oscillator Strength                    0.0692329735
  Root  32         a              0.260753301 a.u.                7.0955 eV
     Dipole Oscillator Strength                    0.0016009790
  Root  33         a              0.265399054 a.u.                7.2219 eV
     Dipole Oscillator Strength                    0.0000757619
  Root  34         a              0.267189947 a.u.                7.2706 eV
     Dipole Oscillator Strength                    0.2577916317
  Root  35         a              0.270805488 a.u.                7.3690 eV
     Dipole Oscillator Strength                    0.0000187913
  Root  36         a              0.271240138 a.u.                7.3808 eV
     Dipole Oscillator Strength                    0.0004270872
  Root  37         a              0.271756371 a.u.                7.3949 eV
     Dipole Oscillator Strength                    0.0477324804
  Root  38         a              0.271806550 a.u.                7.3962 eV
     Dipole Oscillator Strength                    0.0001120822
  Root  39         a              0.272283565 a.u.                7.4092 eV
     Dipole Oscillator Strength                    0.0000151435
  Root  40         a              0.272510278 a.u.                7.4154 eV
     Dipole Oscillator Strength                    0.0003125636
 Total times  cpu:     3702.5s     wall:     3819.7s
