============================== echo of input deck ==============================
echo
start

title "None"

geometry
C    -0.08763632    1.38829358    0.00000005
C    -1.26710267    0.69051973   -0.00000002
C    -1.16709154   -0.70422530   -0.00000002
C     0.08252775   -1.31601343    0.00000004
C     1.24685930   -0.55306626   -0.00000001
C     1.17076052    0.84535517    0.00000005
H    -2.23257696    1.17835820   -0.00000010
H    -2.06797452   -1.30439288   -0.00000009
H     0.14835548   -2.39553596    0.00000000
H     2.21478088   -1.03790130   -0.00000013
H     2.06501895    1.45413388   -0.00000010
symmetry c1
end

basis spherical
 * library "aug-cc-pvtz"
end

dft
 direct
 mult 2
 iterations 500
 xc b3lyp
end

tddft
 nroots 40
 notriplet
 algorithm 1
end
task tddft energy
================================================================================

 Output coordinates in angstroms (scale by  1.889725989 to convert to a.u.)

  No.       Tag          Charge          X              Y              Z
 ---- ---------------- ---------- -------------- -------------- --------------
    1 C                    6.0000    -0.08757549     1.38829741     0.00000005
    2 C                    6.0000    -1.26704184     0.69052356    -0.00000002
    3 C                    6.0000    -1.16703071    -0.70422147    -0.00000002
    4 C                    6.0000     0.08258858    -1.31600960     0.00000004
    5 C                    6.0000     1.24692013    -0.55306243    -0.00000001
    6 C                    6.0000     1.17082135     0.84535900     0.00000005
    7 H                    1.0000    -2.23251613     1.17836203    -0.00000010
    8 H                    1.0000    -2.06791369    -1.30438905    -0.00000009
    9 H                    1.0000     0.14841631    -2.39553213    -0.00000000
   10 H                    1.0000     2.21484171    -1.03789747    -0.00000013
   11 H                    1.0000     2.06507978     1.45413771    -0.00000010

         Total DFT energy =     -231.646317682292

                    DFT Final Alpha Molecular Orbital Analysis
                    ------------------------------------------

 Vector    1  Occ=1.000000D+00  E=-1.020521D+01

 Vector  305  Occ=0.000000D+00  E= 3.874532D+00

 Vector  306  Occ=0.000000D+00  E= 3.900102D+00

 Vector  307  Occ=0.000000D+00  E= 3.910031D+00

 Vector  308  Occ=0.000000D+00  E= 3.921952D+00

 Vector  309  Occ=0.000000D+00  E= 3.926240D+00

 Vector  310  Occ=0.000000D+00  E= 3.952338D+00

 Vector  311  Occ=0.000000D+00  E= 3.958695D+00

 Vector  312  Occ=0.000000D+00  E= 3.962770D+00

 Vector  313  Occ=0.000000D+00  E= 3.989422D+00

 Vector  314  Occ=0.000000D+00  E= 3.994104D+00

 Vector  315  Occ=0.000000D+00  E= 4.010699D+00

 Vector  316  Occ=0.000000D+00  E= 4.033024D+00

 Vector  317  Occ=0.000000D+00  E= 4.060696D+00

 Vector  318  Occ=0.000000D+00  E= 4.069980D+00

 Vector  319  Occ=0.000000D+00  E= 4.102916D+00

 Vector  320  Occ=0.000000D+00  E= 4.103501D+00

 Vector  321  Occ=0.000000D+00  E= 4.105852D+00

 Vector  322  Occ=0.000000D+00  E= 4.153985D+00

 Vector  323  Occ=0.000000D+00  E= 4.206782D+00

 Vector  324  Occ=0.000000D+00  E= 4.230577D+00

 Vector  325  Occ=0.000000D+00  E= 4.236952D+00

 Vector  326  Occ=0.000000D+00  E= 4.330796D+00

 Vector  327  Occ=0.000000D+00  E= 4.345441D+00

 Vector  328  Occ=0.000000D+00  E= 4.390464D+00

 Vector  329  Occ=0.000000D+00  E= 4.420623D+00

 Vector  330  Occ=0.000000D+00  E= 4.444563D+00

 Vector  331  Occ=0.000000D+00  E= 4.462537D+00

 Vector  332  Occ=0.000000D+00  E= 4.485916D+00

 Vector  333  Occ=0.000000D+00  E= 4.490615D+00

 Vector  334  Occ=0.000000D+00  E= 4.506267D+00

 Vector  335  Occ=0.000000D+00  E= 4.520565D+00

 Vector  336  Occ=0.000000D+00  E= 4.575898D+00

 Vector  337  Occ=0.000000D+00  E= 4.627109D+00

 Vector  338  Occ=0.000000D+00  E= 4.651208D+00

 Vector  339  Occ=0.000000D+00  E= 4.658398D+00

 Vector  340  Occ=0.000000D+00  E= 4.705141D+00

 Vector  341  Occ=0.000000D+00  E= 4.720330D+00

 Vector  342  Occ=0.000000D+00  E= 4.750739D+00

 Vector  343  Occ=0.000000D+00  E= 4.754455D+00

 Vector  344  Occ=0.000000D+00  E= 4.767718D+00

 Vector  345  Occ=0.000000D+00  E= 4.802295D+00

 Vector  346  Occ=0.000000D+00  E= 4.805025D+00

 Vector  347  Occ=0.000000D+00  E= 4.807719D+00

 Vector  348  Occ=0.000000D+00  E= 4.822846D+00

 Vector  349  Occ=0.000000D+00  E= 4.857654D+00

 Vector  350  Occ=0.000000D+00  E= 4.903536D+00

 Vector  351  Occ=0.000000D+00  E= 4.933781D+00

 Vector  352  Occ=0.000000D+00  E= 4.949462D+00

 Vector  353  Occ=0.000000D+00  E= 4.959997D+00

 Vector  354  Occ=0.000000D+00  E= 4.982608D+00

 Vector  355  Occ=0.000000D+00  E= 5.085752D+00

 Vector  356  Occ=0.000000D+00  E= 5.088832D+00

 Vector  357  Occ=0.000000D+00  E= 5.093051D+00

 Vector  358  Occ=0.000000D+00  E= 5.166986D+00

 Vector  359  Occ=0.000000D+00  E= 5.260294D+00

 Vector  360  Occ=0.000000D+00  E= 5.322052D+00

 Vector  361  Occ=0.000000D+00  E= 5.324806D+00

 Vector  362  Occ=0.000000D+00  E= 5.410753D+00

 Vector  363  Occ=0.000000D+00  E= 5.415703D+00

 Vector  364  Occ=0.000000D+00  E= 5.436342D+00

 Vector  365  Occ=0.000000D+00  E= 5.620403D+00

 Vector  366  Occ=0.000000D+00  E= 5.635055D+00

 Vector  367  Occ=0.000000D+00  E= 5.682434D+00

 Vector  368  Occ=0.000000D+00  E= 5.749046D+00

 Vector  369  Occ=0.000000D+00  E= 5.802502D+00

 Vector  370  Occ=0.000000D+00  E= 5.919688D+00

 Vector  371  Occ=0.000000D+00  E= 5.930139D+00

 Vector  372  Occ=0.000000D+00  E= 6.047816D+00

 Vector  373  Occ=0.000000D+00  E= 6.165642D+00

 Vector  374  Occ=0.000000D+00  E= 6.253085D+00

 Vector  375  Occ=0.000000D+00  E= 6.406684D+00

 Vector  376  Occ=0.000000D+00  E= 6.449960D+00

 Vector  377  Occ=0.000000D+00  E= 6.604551D+00

 Vector  378  Occ=0.000000D+00  E= 6.864783D+00

 Vector  379  Occ=0.000000D+00  E= 1.504870D+01

 Vector  380  Occ=0.000000D+00  E= 1.506650D+01

 Vector  381  Occ=0.000000D+00  E= 1.597861D+01

 Vector  382  Occ=0.000000D+00  E= 1.764815D+01

 Vector  383  Occ=0.000000D+00  E= 1.800491D+01

 Vector  384  Occ=0.000000D+00  E= 1.806326D+01

     Multipole analysis of the density
     ---------------------------------

     L   x y z        total         alpha         beta         nuclear
     -   - - -        -----         -----         ----         -------
     0   0 0 0     -0.000000    -21.000000    -20.000000     41.000000

     1   1 0 0      0.021526      0.107176     -0.085650     -0.000000
     1   0 1 0     -0.340563     -1.694410      1.353847      0.000000
     1   0 0 1     -0.000001     -0.000001     -0.000000      0.000000

     2   2 0 0    -22.667014   -108.563665   -106.574330    192.470981
     2   1 1 0      0.195684     -0.508158     -1.138940      1.842782
     2   1 0 1      0.000000     -0.000001     -0.000001      0.000002
     2   0 2 0    -25.677603   -100.812392    -88.903331    164.038121
     2   0 1 1     -0.000005     -0.000004     -0.000003      0.000001

  Root   1         a              0.106111116 a.u.                2.8874 eV
     Dipole Oscillator Strength                    0.0012090376
  Root   2         a              0.125978443 a.u.                3.4280 eV
     Dipole Oscillator Strength                    0.0000000067
  Root   3         a              0.143181613 a.u.                3.8962 eV
     Dipole Oscillator Strength                    0.0000123722
  Root   4         a              0.170309047 a.u.                4.6343 eV
     Dipole Oscillator Strength                    0.0000000487
  Root   5         a              0.171390175 a.u.                4.6638 eV
     Dipole Oscillator Strength                    0.0002468988
  Root   6         a              0.173819633 a.u.                4.7299 eV
     Dipole Oscillator Strength                    0.0037712604
  Root   7         a              0.177177103 a.u.                4.8212 eV
     Dipole Oscillator Strength                    0.0000140854
  Root   8         a              0.191905955 a.u.                5.2220 eV
     Dipole Oscillator Strength                    0.0006743795
  Root   9         a              0.201732858 a.u.                5.4894 eV
     Dipole Oscillator Strength                    0.0064439152
  Root  10         a              0.210942169 a.u.                5.7400 eV
     Dipole Oscillator Strength                    0.0075795607
  Root  11         a              0.215576560 a.u.                5.8661 eV
     Dipole Oscillator Strength                    0.0015011127
  Root  12         a              0.223054867 a.u.                6.0696 eV
     Dipole Oscillator Strength                    0.0002788652
  Root  13         a              0.224529065 a.u.                6.1097 eV
     Dipole Oscillator Strength                    0.0040481144
  Root  14         a              0.228488160 a.u.                6.2175 eV
     Dipole Oscillator Strength                    0.0092175022
  Root  15         a              0.228619527 a.u.                6.2211 eV
     Dipole Oscillator Strength                    0.0000009597
  Root  16         a              0.229636801 a.u.                6.2487 eV
     Dipole Oscillator Strength                    0.0009870583
  Root  17         a              0.229977457 a.u.                6.2580 eV
     Dipole Oscillator Strength                    0.0000025003
  Root  18         a              0.232166222 a.u.                6.3176 eV
     Dipole Oscillator Strength                    0.0225107898
  Root  19         a              0.235292617 a.u.                6.4026 eV
     Dipole Oscillator Strength                    0.0001734367
  Root  20         a              0.241733953 a.u.                6.5779 eV
     Dipole Oscillator Strength                    0.0000006455
  Root  21         a              0.242535029 a.u.                6.5997 eV
     Dipole Oscillator Strength                    0.0946098320
  Root  22         a              0.245290789 a.u.                6.6747 eV
     Dipole Oscillator Strength                    0.0020172682
  Root  23         a              0.246397874 a.u.                6.7048 eV
     Dipole Oscillator Strength                    0.0332326999
  Root  24         a              0.247293579 a.u.                6.7292 eV
     Dipole Oscillator Strength                    0.0012644952
  Root  25         a              0.248301262 a.u.                6.7566 eV
     Dipole Oscillator Strength                    0.0000052891
  Root  26         a              0.251111654 a.u.                6.8331 eV
     Dipole Oscillator Strength                    0.0457729027
  Root  27         a              0.251957201 a.u.                6.8561 eV
     Dipole Oscillator Strength                    0.0100329943
  Root  28         a              0.252659394 a.u.                6.8752 eV
     Dipole Oscillator Strength                    0.0000203045
  Root  29         a              0.253975503 a.u.                6.9110 eV
     Dipole Oscillator Strength                    0.0000002687
  Root  30         a              0.254724967 a.u.                6.9314 eV
     Dipole Oscillator Strength                    0.3864260728
  Root  31         a              0.255325576 a.u.                6.9478 eV
     Dipole Oscillator Strength                    0.0692005947
  Root  32         a              0.260675054 a.u.                7.0933 eV
     Dipole Oscillator Strength                    0.0015928632
  Root  33         a              0.265417242 a.u.                7.2224 eV
     Dipole Oscillator Strength                    0.0000000008
  Root  34         a              0.267144762 a.u.                7.2694 eV
     Dipole Oscillator Strength                    0.2572443145
  Root  35         a              0.270830913 a.u.                7.3697 eV
     Dipole Oscillator Strength                    0.0000153440
  Root  36         a              0.271245093 a.u.                7.3810 eV
     Dipole Oscillator Strength                    0.0004231509
  Root  37         a              0.271696008 a.u.                7.3932 eV
     Dipole Oscillator Strength                    0.0506585417
  Root  38         a              0.271815248 a.u.                7.3965 eV
     Dipole Oscillator Strength                    0.0001129857
  Root  39         a              0.272275258 a.u.                7.4090 eV
     Dipole Oscillator Strength                    0.0000003561
  Root  40         a              0.272518063 a.u.                7.4156 eV
     Dipole Oscillator Strength                    0.0003136534
 Total times  cpu:     2908.3s     wall:     2999.5s
