============================== echo of input deck ==============================
echo
start

title "None"

geometry
C    -0.08827910    1.38825267    0.00000005
C    -1.26697460    0.69092805   -0.00000002
C    -1.16721446   -0.70410824   -0.00000002
C     0.08197864   -1.31604845    0.00000004
C     1.24675306   -0.55319761   -0.00000001
C     1.17093795    0.84496755    0.00000005
H    -2.23120553    1.18117566   -0.00000010
H    -2.06593908   -1.30742175   -0.00000009
H     0.15487413   -2.39512571   -0.00000000
H     2.21641937   -1.03464450   -0.00000013
H     2.06673613    1.45150658   -0.00000010
symmetry c1
end

basis spherical
 * library "aug-cc-pvtz"
end

dft
 direct
 mult 2
 iterations 500
 xc b3lyp
end

tddft
 nroots 40
 notriplet
 algorithm 1
end
task tddft energy
================================================================================

 Output coordinates in angstroms (scale by  1.889725989 to convert to a.u.)

  No.       Tag          Charge          X              Y              Z
 ---- ---------------- ---------- -------------- -------------- --------------
    1 C                    6.0000    -0.08837895     1.38824647     0.00000005
    2 C                    6.0000    -1.26707445     0.69092185    -0.00000002
    3 C                    6.0000    -1.16731431    -0.70411444    -0.00000002
    4 C                    6.0000     0.08187879    -1.31605465     0.00000004
    5 C                    6.0000     1.24665321    -0.55320381    -0.00000001
    6 C                    6.0000     1.17083810     0.84496135     0.00000005
    7 H                    1.0000    -2.23130538     1.18116946    -0.00000010
    8 H                    1.0000    -2.06603893    -1.30742795    -0.00000009
    9 H                    1.0000     0.15477428    -2.39513191    -0.00000000
   10 H                    1.0000     2.21631952    -1.03465070    -0.00000013
   11 H                    1.0000     2.06663628     1.45150038    -0.00000010

         Total DFT energy =     -231.646313269920

                    DFT Final Alpha Molecular Orbital Analysis
                    ------------------------------------------

 Vector    1  Occ=1.000000D+00  E=-1.020520D+01

 Vector  305  Occ=0.000000D+00  E= 3.874537D+00

 Vector  306  Occ=0.000000D+00  E= 3.900101D+00

 Vector  307  Occ=0.000000D+00  E= 3.910036D+00

 Vector  308  Occ=0.000000D+00  E= 3.921938D+00

 Vector  309  Occ=0.000000D+00  E= 3.926195D+00

 Vector  310  Occ=0.000000D+00  E= 3.952324D+00

 Vector  311  Occ=0.000000D+00  E= 3.958726D+00

 Vector  312  Occ=0.000000D+00  E= 3.962759D+00

 Vector  313  Occ=0.000000D+00  E= 3.989417D+00

 Vector  314  Occ=0.000000D+00  E= 3.994120D+00

 Vector  315  Occ=0.000000D+00  E= 4.010677D+00

 Vector  316  Occ=0.000000D+00  E= 4.033023D+00

 Vector  317  Occ=0.000000D+00  E= 4.060686D+00

 Vector  318  Occ=0.000000D+00  E= 4.069971D+00

 Vector  319  Occ=0.000000D+00  E= 4.102763D+00

 Vector  320  Occ=0.000000D+00  E= 4.103619D+00

 Vector  321  Occ=0.000000D+00  E= 4.105848D+00

 Vector  322  Occ=0.000000D+00  E= 4.153982D+00

 Vector  323  Occ=0.000000D+00  E= 4.206759D+00

 Vector  324  Occ=0.000000D+00  E= 4.230549D+00

 Vector  325  Occ=0.000000D+00  E= 4.236927D+00

 Vector  326  Occ=0.000000D+00  E= 4.330803D+00

 Vector  327  Occ=0.000000D+00  E= 4.345418D+00

 Vector  328  Occ=0.000000D+00  E= 4.390446D+00

 Vector  329  Occ=0.000000D+00  E= 4.420607D+00

 Vector  330  Occ=0.000000D+00  E= 4.444599D+00

 Vector  331  Occ=0.000000D+00  E= 4.462552D+00

 Vector  332  Occ=0.000000D+00  E= 4.485959D+00

 Vector  333  Occ=0.000000D+00  E= 4.490561D+00

 Vector  334  Occ=0.000000D+00  E= 4.506266D+00

 Vector  335  Occ=0.000000D+00  E= 4.520556D+00

 Vector  336  Occ=0.000000D+00  E= 4.575837D+00

 Vector  337  Occ=0.000000D+00  E= 4.627120D+00

 Vector  338  Occ=0.000000D+00  E= 4.651240D+00

 Vector  339  Occ=0.000000D+00  E= 4.658410D+00

 Vector  340  Occ=0.000000D+00  E= 4.705146D+00

 Vector  341  Occ=0.000000D+00  E= 4.720319D+00

 Vector  342  Occ=0.000000D+00  E= 4.750704D+00

 Vector  343  Occ=0.000000D+00  E= 4.754456D+00

 Vector  344  Occ=0.000000D+00  E= 4.767687D+00

 Vector  345  Occ=0.000000D+00  E= 4.802268D+00

 Vector  346  Occ=0.000000D+00  E= 4.805043D+00

 Vector  347  Occ=0.000000D+00  E= 4.807685D+00

 Vector  348  Occ=0.000000D+00  E= 4.822865D+00

 Vector  349  Occ=0.000000D+00  E= 4.857615D+00

 Vector  350  Occ=0.000000D+00  E= 4.903538D+00

 Vector  351  Occ=0.000000D+00  E= 4.933821D+00

 Vector  352  Occ=0.000000D+00  E= 4.949615D+00

 Vector  353  Occ=0.000000D+00  E= 4.959844D+00

 Vector  354  Occ=0.000000D+00  E= 4.982614D+00

 Vector  355  Occ=0.000000D+00  E= 5.085711D+00

 Vector  356  Occ=0.000000D+00  E= 5.088820D+00

 Vector  357  Occ=0.000000D+00  E= 5.093040D+00

 Vector  358  Occ=0.000000D+00  E= 5.166977D+00

 Vector  359  Occ=0.000000D+00  E= 5.260303D+00

 Vector  360  Occ=0.000000D+00  E= 5.322621D+00

 Vector  361  Occ=0.000000D+00  E= 5.324227D+00

 Vector  362  Occ=0.000000D+00  E= 5.410765D+00

 Vector  363  Occ=0.000000D+00  E= 5.415708D+00

 Vector  364  Occ=0.000000D+00  E= 5.436322D+00

 Vector  365  Occ=0.000000D+00  E= 5.620372D+00

 Vector  366  Occ=0.000000D+00  E= 5.635043D+00

 Vector  367  Occ=0.000000D+00  E= 5.682514D+00

 Vector  368  Occ=0.000000D+00  E= 5.749019D+00

 Vector  369  Occ=0.000000D+00  E= 5.802493D+00

 Vector  370  Occ=0.000000D+00  E= 5.919772D+00

 Vector  371  Occ=0.000000D+00  E= 5.930052D+00

 Vector  372  Occ=0.000000D+00  E= 6.047820D+00

 Vector  373  Occ=0.000000D+00  E= 6.165628D+00

 Vector  374  Occ=0.000000D+00  E= 6.253094D+00

 Vector  375  Occ=0.000000D+00  E= 6.406661D+00

 Vector  376  Occ=0.000000D+00  E= 6.449945D+00

 Vector  377  Occ=0.000000D+00  E= 6.604512D+00

 Vector  378  Occ=0.000000D+00  E= 6.864767D+00

 Vector  379  Occ=0.000000D+00  E= 1.504832D+01

 Vector  380  Occ=0.000000D+00  E= 1.506681D+01

 Vector  381  Occ=0.000000D+00  E= 1.597871D+01

 Vector  382  Occ=0.000000D+00  E= 1.764799D+01

 Vector  383  Occ=0.000000D+00  E= 1.800503D+01

 Vector  384  Occ=0.000000D+00  E= 1.806323D+01

     Multipole analysis of the density
     ---------------------------------

     L   x y z        total         alpha         beta         nuclear
     -   - - -        -----         -----         ----         -------
     0   0 0 0     -0.000000    -21.000000    -20.000000     41.000000

     1   1 0 0      0.023201      0.108822     -0.085620      0.000000
     1   0 1 0     -0.340253     -1.694232      1.353979     -0.000000
     1   0 0 1     -0.000001     -0.000001     -0.000000      0.000000

     2   2 0 0    -22.665208   -108.567803   -106.577707    192.480302
     2   1 1 0      0.185103     -0.473372     -1.111542      1.770017
     2   1 0 1      0.000000     -0.000001     -0.000001      0.000002
     2   0 2 0    -25.678040   -100.807609    -88.899328    164.028896
     2   0 1 1     -0.000005     -0.000003     -0.000003      0.000001

  Root   1         a              0.106123731 a.u.                2.8878 eV
     Dipole Oscillator Strength                    0.0012090964
  Root   2         a              0.125992764 a.u.                3.4284 eV
     Dipole Oscillator Strength                    0.0000000031
  Root   3         a              0.143182629 a.u.                3.8962 eV
     Dipole Oscillator Strength                    0.0000123634
  Root   4         a              0.170303004 a.u.                4.6342 eV
     Dipole Oscillator Strength                    0.0000005563
  Root   5         a              0.171390033 a.u.                4.6638 eV
     Dipole Oscillator Strength                    0.0002471358
  Root   6         a              0.173817397 a.u.                4.7298 eV
     Dipole Oscillator Strength                    0.0037706127
  Root   7         a              0.177177912 a.u.                4.8213 eV
     Dipole Oscillator Strength                    0.0000140653
  Root   8         a              0.191907732 a.u.                5.2221 eV
     Dipole Oscillator Strength                    0.0006747411
  Root   9         a              0.201734682 a.u.                5.4895 eV
     Dipole Oscillator Strength                    0.0064476421
  Root  10         a              0.210942793 a.u.                5.7400 eV
     Dipole Oscillator Strength                    0.0075781949
  Root  11         a              0.215587011 a.u.                5.8664 eV
     Dipole Oscillator Strength                    0.0015018508
  Root  12         a              0.223059317 a.u.                6.0698 eV
     Dipole Oscillator Strength                    0.0002786116
  Root  13         a              0.224530479 a.u.                6.1098 eV
     Dipole Oscillator Strength                    0.0040481219
  Root  14         a              0.228488759 a.u.                6.2175 eV
     Dipole Oscillator Strength                    0.0092172666
  Root  15         a              0.228625768 a.u.                6.2212 eV
     Dipole Oscillator Strength                    0.0000001740
  Root  16         a              0.229642943 a.u.                6.2489 eV
     Dipole Oscillator Strength                    0.0009850755
  Root  17         a              0.229984022 a.u.                6.2582 eV
     Dipole Oscillator Strength                    0.0000061363
  Root  18         a              0.232167019 a.u.                6.3176 eV
     Dipole Oscillator Strength                    0.0225115366
  Root  19         a              0.235307221 a.u.                6.4030 eV
     Dipole Oscillator Strength                    0.0001730001
  Root  20         a              0.241738909 a.u.                6.5781 eV
     Dipole Oscillator Strength                    0.0000008241
  Root  21         a              0.242539153 a.u.                6.5998 eV
     Dipole Oscillator Strength                    0.0946496720
  Root  22         a              0.245297279 a.u.                6.6749 eV
     Dipole Oscillator Strength                    0.0020130065
  Root  23         a              0.246403901 a.u.                6.7050 eV
     Dipole Oscillator Strength                    0.0332249292
  Root  24         a              0.247300711 a.u.                6.7294 eV
     Dipole Oscillator Strength                    0.0012762988
  Root  25         a              0.248307541 a.u.                6.7568 eV
     Dipole Oscillator Strength                    0.0000040536
  Root  26         a              0.251112779 a.u.                6.8331 eV
     Dipole Oscillator Strength                    0.0456726274
  Root  27         a              0.251964152 a.u.                6.8563 eV
     Dipole Oscillator Strength                    0.0100383731
  Root  28         a              0.252665178 a.u.                6.8754 eV
     Dipole Oscillator Strength                    0.0000155604
  Root  29         a              0.253983790 a.u.                6.9113 eV
     Dipole Oscillator Strength                    0.0000003447
  Root  30         a              0.254727843 a.u.                6.9315 eV
     Dipole Oscillator Strength                    0.3861121307
  Root  31         a              0.255327948 a.u.                6.9478 eV
     Dipole Oscillator Strength                    0.0696270104
  Root  32         a              0.260675220 a.u.                7.0933 eV
     Dipole Oscillator Strength                    0.0015922168
  Root  33         a              0.265422570 a.u.                7.2225 eV
     Dipole Oscillator Strength                    0.0000000551
  Root  34         a              0.267148120 a.u.                7.2695 eV
     Dipole Oscillator Strength                    0.2571443068
  Root  35         a              0.270837872 a.u.                7.3699 eV
     Dipole Oscillator Strength                    0.0000153678
  Root  36         a              0.271246292 a.u.                7.3810 eV
     Dipole Oscillator Strength                    0.0004235551
  Root  37         a              0.271696961 a.u.                7.3933 eV
     Dipole Oscillator Strength                    0.0508205349
  Root  38         a              0.271822857 a.u.                7.3967 eV
     Dipole Oscillator Strength                    0.0001130023
  Root  39         a              0.272281251 a.u.                7.4092 eV
     Dipole Oscillator Strength                    0.0000006529
  Root  40         a              0.272523683 a.u.                7.4157 eV
     Dipole Oscillator Strength                    0.0003135815
 Total times  cpu:     2901.9s     wall:     2996.5s
