============================== echo of input deck ==============================
echo
start

title "None"

geometry
C    -0.08666538    1.38835551    0.00000005
C    -1.26773504    0.69131379   -0.00000002
C    -1.16745814   -0.70530880   -0.00000002
C     0.08385332   -1.31592987    0.00000004
C     1.24635914   -0.55203763   -0.00000001
C     1.17023445    0.84448699    0.00000005
H    -2.23257557    1.18062634   -0.00000010
H    -2.06902916   -1.30465275   -0.00000009
H     0.14697395   -2.39562293    0.00000000
H     2.21370323   -1.03777228   -0.00000013
H     2.06530325    1.45188794   -0.00000010
symmetry c1
end

basis spherical
 * library "aug-cc-pvtz"
end

dft
 direct
 mult 2
 iterations 500
 xc b3lyp
end

tddft
 nroots 40
 notriplet
 algorithm 1
end
task tddft energy
================================================================================

 Output coordinates in angstroms (scale by  1.889725989 to convert to a.u.)

  No.       Tag          Charge          X              Y              Z
 ---- ---------------- ---------- -------------- -------------- --------------
    1 C                    6.0000    -0.08656552     1.38836170     0.00000005
    2 C                    6.0000    -1.26763518     0.69131998    -0.00000002
    3 C                    6.0000    -1.16735828    -0.70530261    -0.00000002
    4 C                    6.0000     0.08395318    -1.31592368     0.00000004
    5 C                    6.0000     1.24645900    -0.55203144    -0.00000001
    6 C                    6.0000     1.17033431     0.84449318     0.00000005
    7 H                    1.0000    -2.23247571     1.18063253    -0.00000010
    8 H                    1.0000    -2.06892930    -1.30464656    -0.00000009
    9 H                    1.0000     0.14707381    -2.39561674    -0.00000000
   10 H                    1.0000     2.21380309    -1.03776609    -0.00000013
   11 H                    1.0000     2.06540311     1.45189413    -0.00000010

         Total DFT energy =     -231.646313057396

                    DFT Final Alpha Molecular Orbital Analysis
                    ------------------------------------------

 Vector    1  Occ=1.000000D+00  E=-1.020521D+01

 Vector  305  Occ=0.000000D+00  E= 3.874541D+00

 Vector  306  Occ=0.000000D+00  E= 3.900100D+00

 Vector  307  Occ=0.000000D+00  E= 3.910035D+00

 Vector  308  Occ=0.000000D+00  E= 3.921943D+00

 Vector  309  Occ=0.000000D+00  E= 3.926196D+00

 Vector  310  Occ=0.000000D+00  E= 3.952327D+00

 Vector  311  Occ=0.000000D+00  E= 3.958726D+00

 Vector  312  Occ=0.000000D+00  E= 3.962760D+00

 Vector  313  Occ=0.000000D+00  E= 3.989420D+00

 Vector  314  Occ=0.000000D+00  E= 3.994124D+00

 Vector  315  Occ=0.000000D+00  E= 4.010681D+00

 Vector  316  Occ=0.000000D+00  E= 4.033024D+00

 Vector  317  Occ=0.000000D+00  E= 4.060687D+00

 Vector  318  Occ=0.000000D+00  E= 4.069973D+00

 Vector  319  Occ=0.000000D+00  E= 4.102765D+00

 Vector  320  Occ=0.000000D+00  E= 4.103621D+00

 Vector  321  Occ=0.000000D+00  E= 4.105850D+00

 Vector  322  Occ=0.000000D+00  E= 4.153987D+00

 Vector  323  Occ=0.000000D+00  E= 4.206760D+00

 Vector  324  Occ=0.000000D+00  E= 4.230553D+00

 Vector  325  Occ=0.000000D+00  E= 4.236929D+00

 Vector  326  Occ=0.000000D+00  E= 4.330805D+00

 Vector  327  Occ=0.000000D+00  E= 4.345422D+00

 Vector  328  Occ=0.000000D+00  E= 4.390449D+00

 Vector  329  Occ=0.000000D+00  E= 4.420607D+00

 Vector  330  Occ=0.000000D+00  E= 4.444601D+00

 Vector  331  Occ=0.000000D+00  E= 4.462551D+00

 Vector  332  Occ=0.000000D+00  E= 4.485964D+00

 Vector  333  Occ=0.000000D+00  E= 4.490566D+00

 Vector  334  Occ=0.000000D+00  E= 4.506265D+00

 Vector  335  Occ=0.000000D+00  E= 4.520559D+00

 Vector  336  Occ=0.000000D+00  E= 4.575842D+00

 Vector  337  Occ=0.000000D+00  E= 4.627121D+00

 Vector  338  Occ=0.000000D+00  E= 4.651243D+00

 Vector  339  Occ=0.000000D+00  E= 4.658412D+00

 Vector  340  Occ=0.000000D+00  E= 4.705146D+00

 Vector  341  Occ=0.000000D+00  E= 4.720320D+00

 Vector  342  Occ=0.000000D+00  E= 4.750707D+00

 Vector  343  Occ=0.000000D+00  E= 4.754456D+00

 Vector  344  Occ=0.000000D+00  E= 4.767684D+00

 Vector  345  Occ=0.000000D+00  E= 4.802272D+00

 Vector  346  Occ=0.000000D+00  E= 4.805047D+00

 Vector  347  Occ=0.000000D+00  E= 4.807687D+00

 Vector  348  Occ=0.000000D+00  E= 4.822864D+00

 Vector  349  Occ=0.000000D+00  E= 4.857617D+00

 Vector  350  Occ=0.000000D+00  E= 4.903539D+00

 Vector  351  Occ=0.000000D+00  E= 4.933822D+00

 Vector  352  Occ=0.000000D+00  E= 4.949618D+00

 Vector  353  Occ=0.000000D+00  E= 4.959843D+00

 Vector  354  Occ=0.000000D+00  E= 4.982615D+00

 Vector  355  Occ=0.000000D+00  E= 5.085713D+00

 Vector  356  Occ=0.000000D+00  E= 5.088822D+00

 Vector  357  Occ=0.000000D+00  E= 5.093041D+00

 Vector  358  Occ=0.000000D+00  E= 5.166981D+00

 Vector  359  Occ=0.000000D+00  E= 5.260306D+00

 Vector  360  Occ=0.000000D+00  E= 5.322623D+00

 Vector  361  Occ=0.000000D+00  E= 5.324230D+00

 Vector  362  Occ=0.000000D+00  E= 5.410766D+00

 Vector  363  Occ=0.000000D+00  E= 5.415710D+00

 Vector  364  Occ=0.000000D+00  E= 5.436326D+00

 Vector  365  Occ=0.000000D+00  E= 5.620374D+00

 Vector  366  Occ=0.000000D+00  E= 5.635046D+00

 Vector  367  Occ=0.000000D+00  E= 5.682519D+00

 Vector  368  Occ=0.000000D+00  E= 5.749021D+00

 Vector  369  Occ=0.000000D+00  E= 5.802495D+00

 Vector  370  Occ=0.000000D+00  E= 5.919773D+00

 Vector  371  Occ=0.000000D+00  E= 5.930053D+00

 Vector  372  Occ=0.000000D+00  E= 6.047826D+00

 Vector  373  Occ=0.000000D+00  E= 6.165631D+00

 Vector  374  Occ=0.000000D+00  E= 6.253097D+00

 Vector  375  Occ=0.000000D+00  E= 6.406666D+00

 Vector  376  Occ=0.000000D+00  E= 6.449945D+00

 Vector  377  Occ=0.000000D+00  E= 6.604517D+00

 Vector  378  Occ=0.000000D+00  E= 6.864772D+00

 Vector  379  Occ=0.000000D+00  E= 1.504830D+01

 Vector  380  Occ=0.000000D+00  E= 1.506682D+01

 Vector  381  Occ=0.000000D+00  E= 1.597871D+01

 Vector  382  Occ=0.000000D+00  E= 1.764800D+01

 Vector  383  Occ=0.000000D+00  E= 1.800503D+01

 Vector  384  Occ=0.000000D+00  E= 1.806324D+01

     Multipole analysis of the density
     ---------------------------------

     L   x y z        total         alpha         beta         nuclear
     -   - - -        -----         -----         ----         -------
     0   0 0 0     -0.000000    -21.000000    -20.000000     41.000000

     1   1 0 0      0.019641      0.104666     -0.085025     -0.000000
     1   0 1 0     -0.340585     -1.694536      1.353951      0.000000
     1   0 0 1     -0.000001     -0.000001     -0.000000      0.000000

     2   2 0 0    -22.666743   -108.563568   -106.576084    192.472910
     2   1 1 0      0.195914     -0.507856     -1.124814      1.828584
     2   1 0 1      0.000000     -0.000001     -0.000001      0.000002
     2   0 2 0    -25.677062   -100.812125    -88.901224    164.036288
     2   0 1 1     -0.000005     -0.000004     -0.000003      0.000001

  Root   1         a              0.106117418 a.u.                2.8876 eV
     Dipole Oscillator Strength                    0.0012090608
  Root   2         a              0.125985935 a.u.                3.4283 eV
     Dipole Oscillator Strength                    0.0000000031
  Root   3         a              0.143182104 a.u.                3.8962 eV
     Dipole Oscillator Strength                    0.0000123682
  Root   4         a              0.170305928 a.u.                4.6343 eV
     Dipole Oscillator Strength                    0.0000005567
  Root   5         a              0.171390288 a.u.                4.6638 eV
     Dipole Oscillator Strength                    0.0002470303
  Root   6         a              0.173818887 a.u.                4.7299 eV
     Dipole Oscillator Strength                    0.0037707038
  Root   7         a              0.177177264 a.u.                4.8212 eV
     Dipole Oscillator Strength                    0.0000140748
  Root   8         a              0.191906952 a.u.                5.2221 eV
     Dipole Oscillator Strength                    0.0006745755
  Root   9         a              0.201733867 a.u.                5.4895 eV
     Dipole Oscillator Strength                    0.0064460025
  Root  10         a              0.210943322 a.u.                5.7401 eV
     Dipole Oscillator Strength                    0.0075788040
  Root  11         a              0.215581076 a.u.                5.8663 eV
     Dipole Oscillator Strength                    0.0015014318
  Root  12         a              0.223057736 a.u.                6.0697 eV
     Dipole Oscillator Strength                    0.0002786564
  Root  13         a              0.224529930 a.u.                6.1098 eV
     Dipole Oscillator Strength                    0.0040481545
  Root  14         a              0.228489262 a.u.                6.2175 eV
     Dipole Oscillator Strength                    0.0092170607
  Root  15         a              0.228623640 a.u.                6.2212 eV
     Dipole Oscillator Strength                    0.0000001711
  Root  16         a              0.229640579 a.u.                6.2488 eV
     Dipole Oscillator Strength                    0.0009851403
  Root  17         a              0.229981379 a.u.                6.2581 eV
     Dipole Oscillator Strength                    0.0000061072
  Root  18         a              0.232167371 a.u.                6.3176 eV
     Dipole Oscillator Strength                    0.0225102478
  Root  19         a              0.235300300 a.u.                6.4028 eV
     Dipole Oscillator Strength                    0.0001732433
  Root  20         a              0.241737060 a.u.                6.5780 eV
     Dipole Oscillator Strength                    0.0000008194
  Root  21         a              0.242534730 a.u.                6.5997 eV
     Dipole Oscillator Strength                    0.0946030429
  Root  22         a              0.245294856 a.u.                6.6748 eV
     Dipole Oscillator Strength                    0.0020154670
  Root  23         a              0.246401712 a.u.                6.7049 eV
     Dipole Oscillator Strength                    0.0332270371
  Root  24         a              0.247298012 a.u.                6.7293 eV
     Dipole Oscillator Strength                    0.0012719272
  Root  25         a              0.248305002 a.u.                6.7567 eV
     Dipole Oscillator Strength                    0.0000040141
  Root  26         a              0.251112909 a.u.                6.8331 eV
     Dipole Oscillator Strength                    0.0457262230
  Root  27         a              0.251961404 a.u.                6.8562 eV
     Dipole Oscillator Strength                    0.0100380958
  Root  28         a              0.252662794 a.u.                6.8753 eV
     Dipole Oscillator Strength                    0.0000153838
  Root  29         a              0.253980623 a.u.                6.9112 eV
     Dipole Oscillator Strength                    0.0000003427
  Root  30         a              0.254726420 a.u.                6.9315 eV
     Dipole Oscillator Strength                    0.3860399890
  Root  31         a              0.255328008 a.u.                6.9478 eV
     Dipole Oscillator Strength                    0.0696595720
  Root  32         a              0.260675967 a.u.                7.0934 eV
     Dipole Oscillator Strength                    0.0015925579
  Root  33         a              0.265420576 a.u.                7.2225 eV
     Dipole Oscillator Strength                    0.0000000547
  Root  34         a              0.267146219 a.u.                7.2694 eV
     Dipole Oscillator Strength                    0.2572471239
  Root  35         a              0.270835240 a.u.                7.3698 eV
     Dipole Oscillator Strength                    0.0000153433
  Root  36         a              0.271246067 a.u.                7.3810 eV
     Dipole Oscillator Strength                    0.0004237875
  Root  37         a              0.271696979 a.u.                7.3933 eV
     Dipole Oscillator Strength                    0.0507319303
  Root  38         a              0.271819999 a.u.                7.3966 eV
     Dipole Oscillator Strength                    0.0001129506
  Root  39         a              0.272278548 a.u.                7.4091 eV
     Dipole Oscillator Strength                    0.0000006427
  Root  40         a              0.272521462 a.u.                7.4157 eV
     Dipole Oscillator Strength                    0.0003136227
 Total times  cpu:     2882.1s     wall:     3007.8s
