============================== echo of input deck ==============================
echo
start

title "None"

geometry
C    -0.08867996    1.38822799    0.00000005
C    -1.26705177    0.69140960   -0.00000002
C    -1.16676567   -0.70528027   -0.00000002
C     0.08249684   -1.31601557    0.00000004
C     1.24705038   -0.55197892   -0.00000001
C     1.17092313    0.84447897    0.00000005
H    -2.23089806    1.18255861   -0.00000010
H    -2.06894818   -1.30351816   -0.00000009
H     0.15041065   -2.39540667   -0.00000000
H     2.21392486   -1.03889149   -0.00000013
H     2.06721200    1.45017797   -0.00000010
symmetry c1
end

basis spherical
 * library "aug-cc-pvtz"
end

dft
 direct
 mult 2
 iterations 500
 xc b3lyp
end

tddft
 nroots 40
 notriplet
 algorithm 1
end
task tddft energy
================================================================================

 Output coordinates in angstroms (scale by  1.889725989 to convert to a.u.)

  No.       Tag          Charge          X              Y              Z
 ---- ---------------- ---------- -------------- -------------- --------------
    1 C                    6.0000    -0.08866872     1.38822870     0.00000005
    2 C                    6.0000    -1.26704053     0.69141031    -0.00000002
    3 C                    6.0000    -1.16675443    -0.70527956    -0.00000002
    4 C                    6.0000     0.08250808    -1.31601486     0.00000004
    5 C                    6.0000     1.24706162    -0.55197821    -0.00000001
    6 C                    6.0000     1.17093437     0.84447968     0.00000005
    7 H                    1.0000    -2.23088682     1.18255932    -0.00000010
    8 H                    1.0000    -2.06893694    -1.30351745    -0.00000009
    9 H                    1.0000     0.15042189    -2.39540596    -0.00000000
   10 H                    1.0000     2.21393610    -1.03889078    -0.00000013
   11 H                    1.0000     2.06722324     1.45017868    -0.00000010

         Total DFT energy =     -231.646319760225

                    DFT Final Alpha Molecular Orbital Analysis
                    ------------------------------------------

 Vector    1  Occ=1.000000D+00  E=-1.020525D+01

 Vector  305  Occ=0.000000D+00  E= 3.874573D+00

 Vector  306  Occ=0.000000D+00  E= 3.900108D+00

 Vector  307  Occ=0.000000D+00  E= 3.910046D+00

 Vector  308  Occ=0.000000D+00  E= 3.921975D+00

 Vector  309  Occ=0.000000D+00  E= 3.926173D+00

 Vector  310  Occ=0.000000D+00  E= 3.952241D+00

 Vector  311  Occ=0.000000D+00  E= 3.958907D+00

 Vector  312  Occ=0.000000D+00  E= 3.962804D+00

 Vector  313  Occ=0.000000D+00  E= 3.989434D+00

 Vector  314  Occ=0.000000D+00  E= 3.994118D+00

 Vector  315  Occ=0.000000D+00  E= 4.010690D+00

 Vector  316  Occ=0.000000D+00  E= 4.033084D+00

 Vector  317  Occ=0.000000D+00  E= 4.060743D+00

 Vector  318  Occ=0.000000D+00  E= 4.069994D+00

 Vector  319  Occ=0.000000D+00  E= 4.102884D+00

 Vector  320  Occ=0.000000D+00  E= 4.103533D+00

 Vector  321  Occ=0.000000D+00  E= 4.105881D+00

 Vector  322  Occ=0.000000D+00  E= 4.153979D+00

 Vector  323  Occ=0.000000D+00  E= 4.206781D+00

 Vector  324  Occ=0.000000D+00  E= 4.230617D+00

 Vector  325  Occ=0.000000D+00  E= 4.236966D+00

 Vector  326  Occ=0.000000D+00  E= 4.330849D+00

 Vector  327  Occ=0.000000D+00  E= 4.345449D+00

 Vector  328  Occ=0.000000D+00  E= 4.390449D+00

 Vector  329  Occ=0.000000D+00  E= 4.420683D+00

 Vector  330  Occ=0.000000D+00  E= 4.444582D+00

 Vector  331  Occ=0.000000D+00  E= 4.462555D+00

 Vector  332  Occ=0.000000D+00  E= 4.485959D+00

 Vector  333  Occ=0.000000D+00  E= 4.490593D+00

 Vector  334  Occ=0.000000D+00  E= 4.506303D+00

 Vector  335  Occ=0.000000D+00  E= 4.520573D+00

 Vector  336  Occ=0.000000D+00  E= 4.575962D+00

 Vector  337  Occ=0.000000D+00  E= 4.627128D+00

 Vector  338  Occ=0.000000D+00  E= 4.651227D+00

 Vector  339  Occ=0.000000D+00  E= 4.658439D+00

 Vector  340  Occ=0.000000D+00  E= 4.705199D+00

 Vector  341  Occ=0.000000D+00  E= 4.720343D+00

 Vector  342  Occ=0.000000D+00  E= 4.750761D+00

 Vector  343  Occ=0.000000D+00  E= 4.754492D+00

 Vector  344  Occ=0.000000D+00  E= 4.767715D+00

 Vector  345  Occ=0.000000D+00  E= 4.802188D+00

 Vector  346  Occ=0.000000D+00  E= 4.805165D+00

 Vector  347  Occ=0.000000D+00  E= 4.807705D+00

 Vector  348  Occ=0.000000D+00  E= 4.822859D+00

 Vector  349  Occ=0.000000D+00  E= 4.857666D+00

 Vector  350  Occ=0.000000D+00  E= 4.903560D+00

 Vector  351  Occ=0.000000D+00  E= 4.933832D+00

 Vector  352  Occ=0.000000D+00  E= 4.949614D+00

 Vector  353  Occ=0.000000D+00  E= 4.959824D+00

 Vector  354  Occ=0.000000D+00  E= 4.982659D+00

 Vector  355  Occ=0.000000D+00  E= 5.085657D+00

 Vector  356  Occ=0.000000D+00  E= 5.088956D+00

 Vector  357  Occ=0.000000D+00  E= 5.093057D+00

 Vector  358  Occ=0.000000D+00  E= 5.166993D+00

 Vector  359  Occ=0.000000D+00  E= 5.260300D+00

 Vector  360  Occ=0.000000D+00  E= 5.322831D+00

 Vector  361  Occ=0.000000D+00  E= 5.324074D+00

 Vector  362  Occ=0.000000D+00  E= 5.410704D+00

 Vector  363  Occ=0.000000D+00  E= 5.415782D+00

 Vector  364  Occ=0.000000D+00  E= 5.436345D+00

 Vector  365  Occ=0.000000D+00  E= 5.620443D+00

 Vector  366  Occ=0.000000D+00  E= 5.635079D+00

 Vector  367  Occ=0.000000D+00  E= 5.682452D+00

 Vector  368  Occ=0.000000D+00  E= 5.749036D+00

 Vector  369  Occ=0.000000D+00  E= 5.802524D+00

 Vector  370  Occ=0.000000D+00  E= 5.919778D+00

 Vector  371  Occ=0.000000D+00  E= 5.930094D+00

 Vector  372  Occ=0.000000D+00  E= 6.047853D+00

 Vector  373  Occ=0.000000D+00  E= 6.165667D+00

 Vector  374  Occ=0.000000D+00  E= 6.253106D+00

 Vector  375  Occ=0.000000D+00  E= 6.406658D+00

 Vector  376  Occ=0.000000D+00  E= 6.449956D+00

 Vector  377  Occ=0.000000D+00  E= 6.604591D+00

 Vector  378  Occ=0.000000D+00  E= 6.864780D+00

 Vector  379  Occ=0.000000D+00  E= 1.504883D+01

 Vector  380  Occ=0.000000D+00  E= 1.506669D+01

 Vector  381  Occ=0.000000D+00  E= 1.597873D+01

 Vector  382  Occ=0.000000D+00  E= 1.764814D+01

 Vector  383  Occ=0.000000D+00  E= 1.800496D+01

 Vector  384  Occ=0.000000D+00  E= 1.806329D+01

     Multipole analysis of the density
     ---------------------------------

     L   x y z        total         alpha         beta         nuclear
     -   - - -        -----         -----         ----         -------
     0   0 0 0     -0.000000    -21.000000    -20.000000     41.000000

     1   1 0 0      0.021013      0.108019     -0.087006      0.000000
     1   0 1 0     -0.340534     -1.694504      1.353970      0.000000
     1   0 0 1     -0.000001     -0.000001     -0.000000      0.000000

     2   2 0 0    -22.667355   -108.567957   -106.582163    192.482765
     2   1 1 0      0.182666     -0.466394     -1.101164      1.750225
     2   1 0 1      0.000000     -0.000001     -0.000001      0.000002
     2   0 2 0    -25.677725   -100.807414    -88.896760    164.026449
     2   0 1 1     -0.000005     -0.000004     -0.000003      0.000001

  Root   1         a              0.106296650 a.u.                2.8925 eV
     Dipole Oscillator Strength                    0.0012112713
  Root   2         a              0.126067554 a.u.                3.4305 eV
     Dipole Oscillator Strength                    0.0000000000
  Root   3         a              0.143228048 a.u.                3.8974 eV
     Dipole Oscillator Strength                    0.0000121778
  Root   4         a              0.170396390 a.u.                4.6367 eV
     Dipole Oscillator Strength                    0.0000003289
  Root   5         a              0.171413286 a.u.                4.6644 eV
     Dipole Oscillator Strength                    0.0002490955
  Root   6         a              0.173941278 a.u.                4.7332 eV
     Dipole Oscillator Strength                    0.0037551161
  Root   7         a              0.177211173 a.u.                4.8222 eV
     Dipole Oscillator Strength                    0.0000130222
  Root   8         a              0.191915349 a.u.                5.2223 eV
     Dipole Oscillator Strength                    0.0006901368
  Root   9         a              0.201776179 a.u.                5.4906 eV
     Dipole Oscillator Strength                    0.0064725840
  Root  10         a              0.211024463 a.u.                5.7423 eV
     Dipole Oscillator Strength                    0.0075586825
  Root  11         a              0.215667917 a.u.                5.8686 eV
     Dipole Oscillator Strength                    0.0015008773
  Root  12         a              0.223038449 a.u.                6.0692 eV
     Dipole Oscillator Strength                    0.0002776103
  Root  13         a              0.224550829 a.u.                6.1103 eV
     Dipole Oscillator Strength                    0.0041235644
  Root  14         a              0.228568396 a.u.                6.2197 eV
     Dipole Oscillator Strength                    0.0092166955
  Root  15         a              0.228593241 a.u.                6.2203 eV
     Dipole Oscillator Strength                    0.0000009531
  Root  16         a              0.229659713 a.u.                6.2494 eV
     Dipole Oscillator Strength                    0.0009882731
  Root  17         a              0.229984215 a.u.                6.2582 eV
     Dipole Oscillator Strength                    0.0000058771
  Root  18         a              0.232243700 a.u.                6.3197 eV
     Dipole Oscillator Strength                    0.0225485090
  Root  19         a              0.235380942 a.u.                6.4050 eV
     Dipole Oscillator Strength                    0.0001692044
  Root  20         a              0.241720118 a.u.                6.5775 eV
     Dipole Oscillator Strength                    0.0000000691
  Root  21         a              0.242601092 a.u.                6.6015 eV
     Dipole Oscillator Strength                    0.0951581857
  Root  22         a              0.245275561 a.u.                6.6743 eV
     Dipole Oscillator Strength                    0.0018017435
  Root  23         a              0.246368495 a.u.                6.7040 eV
     Dipole Oscillator Strength                    0.0333246154
  Root  24         a              0.247301321 a.u.                6.7294 eV
     Dipole Oscillator Strength                    0.0013585347
  Root  25         a              0.248315407 a.u.                6.7570 eV
     Dipole Oscillator Strength                    0.0000078520
  Root  26         a              0.251182579 a.u.                6.8350 eV
     Dipole Oscillator Strength                    0.0471671780
  Root  27         a              0.251971756 a.u.                6.8565 eV
     Dipole Oscillator Strength                    0.0100495307
  Root  28         a              0.252624955 a.u.                6.8743 eV
     Dipole Oscillator Strength                    0.0000359019
  Root  29         a              0.253988727 a.u.                6.9114 eV
     Dipole Oscillator Strength                    0.0000000846
  Root  30         a              0.254757576 a.u.                6.9323 eV
     Dipole Oscillator Strength                    0.3854667087
  Root  31         a              0.255403880 a.u.                6.9499 eV
     Dipole Oscillator Strength                    0.0691979601
  Root  32         a              0.260750607 a.u.                7.0954 eV
     Dipole Oscillator Strength                    0.0015883466
  Root  33         a              0.265401265 a.u.                7.2219 eV
     Dipole Oscillator Strength                    0.0000000162
  Root  34         a              0.267190328 a.u.                7.2706 eV
     Dipole Oscillator Strength                    0.2577695048
  Root  35         a              0.270809356 a.u.                7.3691 eV
     Dipole Oscillator Strength                    0.0000164470
  Root  36         a              0.271254563 a.u.                7.3812 eV
     Dipole Oscillator Strength                    0.0004311269
  Root  37         a              0.271754401 a.u.                7.3948 eV
     Dipole Oscillator Strength                    0.0478558348
  Root  38         a              0.271807733 a.u.                7.3963 eV
     Dipole Oscillator Strength                    0.0001115650
  Root  39         a              0.272287568 a.u.                7.4093 eV
     Dipole Oscillator Strength                    0.0000008676
  Root  40         a              0.272510394 a.u.                7.4154 eV
     Dipole Oscillator Strength                    0.0003123169
 Total times  cpu:     2918.1s     wall:     3007.4s
