============================== echo of input deck ==============================
echo
start

title "None"

geometry
C    -0.08747315    1.38836814    0.00000005
C    -1.26725331    0.69135701   -0.00000002
C    -1.16711203   -0.70495331   -0.00000002
C     0.08292860   -1.31595210    0.00000004
C     1.24635195   -0.55290191   -0.00000001
C     1.17045008    0.84494688    0.00000005
H    -2.23079819    1.18311316   -0.00000010
H    -2.06595897   -1.30822259   -0.00000009
H     0.15105879   -2.39532641    0.00000000
H     2.21374144   -1.03871780   -0.00000013
H     2.06462014    1.45380076   -0.00000010
symmetry c1
end

basis spherical
 * library "aug-cc-pvtz"
end

dft
 direct
 mult 2
 iterations 500
 xc b3lyp
end

tddft
 nroots 40
 notriplet
 algorithm 1
end
task tddft energy
================================================================================

 Output coordinates in angstroms (scale by  1.889725989 to convert to a.u.)

  No.       Tag          Charge          X              Y              Z
 ---- ---------------- ---------- -------------- -------------- --------------
    1 C                    6.0000    -0.08747354     1.38837216     0.00000005
    2 C                    6.0000    -1.26725370     0.69136103    -0.00000002
    3 C                    6.0000    -1.16711242    -0.70494929    -0.00000002
    4 C                    6.0000     0.08292821    -1.31594808     0.00000004
    5 C                    6.0000     1.24635156    -0.55289789    -0.00000001
    6 C                    6.0000     1.17044969     0.84495090     0.00000005
    7 H                    1.0000    -2.23079858     1.18311718    -0.00000010
    8 H                    1.0000    -2.06595936    -1.30821857    -0.00000009
    9 H                    1.0000     0.15105840    -2.39532239    -0.00000000
   10 H                    1.0000     2.21374105    -1.03871378    -0.00000013
   11 H                    1.0000     2.06461975     1.45380478    -0.00000010

         Total DFT energy =     -231.646323919885

                    DFT Final Alpha Molecular Orbital Analysis
                    ------------------------------------------

 Vector    1  Occ=1.000000D+00  E=-1.020518D+01

 Vector  305  Occ=0.000000D+00  E= 3.874237D+00

 Vector  306  Occ=0.000000D+00  E= 3.899504D+00

 Vector  307  Occ=0.000000D+00  E= 3.910577D+00

 Vector  308  Occ=0.000000D+00  E= 3.922293D+00

 Vector  309  Occ=0.000000D+00  E= 3.926062D+00

 Vector  310  Occ=0.000000D+00  E= 3.952418D+00

 Vector  311  Occ=0.000000D+00  E= 3.958977D+00

 Vector  312  Occ=0.000000D+00  E= 3.963008D+00

 Vector  313  Occ=0.000000D+00  E= 3.989414D+00

 Vector  314  Occ=0.000000D+00  E= 3.993795D+00

 Vector  315  Occ=0.000000D+00  E= 4.011135D+00

 Vector  316  Occ=0.000000D+00  E= 4.033083D+00

 Vector  317  Occ=0.000000D+00  E= 4.060768D+00

 Vector  318  Occ=0.000000D+00  E= 4.069560D+00

 Vector  319  Occ=0.000000D+00  E= 4.102839D+00

 Vector  320  Occ=0.000000D+00  E= 4.103043D+00

 Vector  321  Occ=0.000000D+00  E= 4.106210D+00

 Vector  322  Occ=0.000000D+00  E= 4.154555D+00

 Vector  323  Occ=0.000000D+00  E= 4.206314D+00

 Vector  324  Occ=0.000000D+00  E= 4.232948D+00

 Vector  325  Occ=0.000000D+00  E= 4.237092D+00

 Vector  326  Occ=0.000000D+00  E= 4.329913D+00

 Vector  327  Occ=0.000000D+00  E= 4.345209D+00

 Vector  328  Occ=0.000000D+00  E= 4.390785D+00

 Vector  329  Occ=0.000000D+00  E= 4.420542D+00

 Vector  330  Occ=0.000000D+00  E= 4.445100D+00

 Vector  331  Occ=0.000000D+00  E= 4.463204D+00

 Vector  332  Occ=0.000000D+00  E= 4.485261D+00

 Vector  333  Occ=0.000000D+00  E= 4.490033D+00

 Vector  334  Occ=0.000000D+00  E= 4.505894D+00

 Vector  335  Occ=0.000000D+00  E= 4.520640D+00

 Vector  336  Occ=0.000000D+00  E= 4.576647D+00

 Vector  337  Occ=0.000000D+00  E= 4.627681D+00

 Vector  338  Occ=0.000000D+00  E= 4.650689D+00

 Vector  339  Occ=0.000000D+00  E= 4.659269D+00

 Vector  340  Occ=0.000000D+00  E= 4.704715D+00

 Vector  341  Occ=0.000000D+00  E= 4.720020D+00

 Vector  342  Occ=0.000000D+00  E= 4.750961D+00

 Vector  343  Occ=0.000000D+00  E= 4.756192D+00

 Vector  344  Occ=0.000000D+00  E= 4.766368D+00

 Vector  345  Occ=0.000000D+00  E= 4.802696D+00

 Vector  346  Occ=0.000000D+00  E= 4.804594D+00

 Vector  347  Occ=0.000000D+00  E= 4.807994D+00

 Vector  348  Occ=0.000000D+00  E= 4.823092D+00

 Vector  349  Occ=0.000000D+00  E= 4.856846D+00

 Vector  350  Occ=0.000000D+00  E= 4.904856D+00

 Vector  351  Occ=0.000000D+00  E= 4.932464D+00

 Vector  352  Occ=0.000000D+00  E= 4.950213D+00

 Vector  353  Occ=0.000000D+00  E= 4.959070D+00

 Vector  354  Occ=0.000000D+00  E= 4.982459D+00

 Vector  355  Occ=0.000000D+00  E= 5.084780D+00

 Vector  356  Occ=0.000000D+00  E= 5.089606D+00

 Vector  357  Occ=0.000000D+00  E= 5.092879D+00

 Vector  358  Occ=0.000000D+00  E= 5.166818D+00

 Vector  359  Occ=0.000000D+00  E= 5.261065D+00

 Vector  360  Occ=0.000000D+00  E= 5.322846D+00

 Vector  361  Occ=0.000000D+00  E= 5.323798D+00

 Vector  362  Occ=0.000000D+00  E= 5.411204D+00

 Vector  363  Occ=0.000000D+00  E= 5.415772D+00

 Vector  364  Occ=0.000000D+00  E= 5.436383D+00

 Vector  365  Occ=0.000000D+00  E= 5.620605D+00

 Vector  366  Occ=0.000000D+00  E= 5.634080D+00

 Vector  367  Occ=0.000000D+00  E= 5.681980D+00

 Vector  368  Occ=0.000000D+00  E= 5.748685D+00

 Vector  369  Occ=0.000000D+00  E= 5.802007D+00

 Vector  370  Occ=0.000000D+00  E= 5.918761D+00

 Vector  371  Occ=0.000000D+00  E= 5.930618D+00

 Vector  372  Occ=0.000000D+00  E= 6.050548D+00

 Vector  373  Occ=0.000000D+00  E= 6.165969D+00

 Vector  374  Occ=0.000000D+00  E= 6.252887D+00

 Vector  375  Occ=0.000000D+00  E= 6.406766D+00

 Vector  376  Occ=0.000000D+00  E= 6.448908D+00

 Vector  377  Occ=0.000000D+00  E= 6.604669D+00

 Vector  378  Occ=0.000000D+00  E= 6.865156D+00

 Vector  379  Occ=0.000000D+00  E= 1.505511D+01

 Vector  380  Occ=0.000000D+00  E= 1.505947D+01

 Vector  381  Occ=0.000000D+00  E= 1.597969D+01

 Vector  382  Occ=0.000000D+00  E= 1.764883D+01

 Vector  383  Occ=0.000000D+00  E= 1.801025D+01

 Vector  384  Occ=0.000000D+00  E= 1.805691D+01

     Multipole analysis of the density
     ---------------------------------

     L   x y z        total         alpha         beta         nuclear
     -   - - -        -----         -----         ----         -------
     0   0 0 0     -0.000000    -21.000000    -20.000000     41.000000

     1   1 0 0      0.021587      0.106840     -0.085254      0.000000
     1   0 1 0     -0.340453     -1.694548      1.354095      0.000000
     1   0 0 1     -0.000001     -0.000001     -0.000000      0.000000

     2   2 0 0    -22.682146   -108.513140   -106.529790    192.360784
     2   1 1 0      0.188250     -0.483145     -1.111326      1.782721
     2   1 0 1      0.000000     -0.000001     -0.000001      0.000002
     2   0 2 0    -25.662373   -100.859350    -88.945051    164.142028
     2   0 1 1     -0.000005     -0.000003     -0.000003      0.000001

  Root   1         a              0.106366858 a.u.                2.8944 eV
     Dipole Oscillator Strength                    0.0012120422
  Root   2         a              0.125955248 a.u.                3.4274 eV
     Dipole Oscillator Strength                    0.0000000000
  Root   3         a              0.143170144 a.u.                3.8959 eV
     Dipole Oscillator Strength                    0.0000120679
  Root   4         a              0.170329094 a.u.                4.6349 eV
     Dipole Oscillator Strength                    0.0000000013
  Root   5         a              0.171389841 a.u.                4.6638 eV
     Dipole Oscillator Strength                    0.0002493330
  Root   6         a              0.174100014 a.u.                4.7375 eV
     Dipole Oscillator Strength                    0.0037519123
  Root   7         a              0.177292394 a.u.                4.8244 eV
     Dipole Oscillator Strength                    0.0000132603
  Root   8         a              0.191935298 a.u.                5.2228 eV
     Dipole Oscillator Strength                    0.0006879188
  Root   9         a              0.201780890 a.u.                5.4907 eV
     Dipole Oscillator Strength                    0.0064862447
  Root  10         a              0.211065685 a.u.                5.7434 eV
     Dipole Oscillator Strength                    0.0075407976
  Root  11         a              0.215563351 a.u.                5.8658 eV
     Dipole Oscillator Strength                    0.0014893462
  Root  12         a              0.223130119 a.u.                6.0717 eV
     Dipole Oscillator Strength                    0.0002785226
  Root  13         a              0.224538692 a.u.                6.1100 eV
     Dipole Oscillator Strength                    0.0047156164
  Root  14         a              0.228502996 a.u.                6.2179 eV
     Dipole Oscillator Strength                    0.0000000013
  Root  15         a              0.228640871 a.u.                6.2216 eV
     Dipole Oscillator Strength                    0.0091545103
  Root  16         a              0.229753294 a.u.                6.2519 eV
     Dipole Oscillator Strength                    0.0009985190
  Root  17         a              0.229888693 a.u.                6.2556 eV
     Dipole Oscillator Strength                    0.0000000432
  Root  18         a              0.232243149 a.u.                6.3197 eV
     Dipole Oscillator Strength                    0.0229583345
  Root  19         a              0.235371513 a.u.                6.4048 eV
     Dipole Oscillator Strength                    0.0001721197
  Root  20         a              0.241841757 a.u.                6.5809 eV
     Dipole Oscillator Strength                    0.0000000006
  Root  21         a              0.242644435 a.u.                6.6027 eV
     Dipole Oscillator Strength                    0.0950644091
  Root  22         a              0.245254845 a.u.                6.6737 eV
     Dipole Oscillator Strength                    0.0013809432
  Root  23         a              0.246345158 a.u.                6.7034 eV
     Dipole Oscillator Strength                    0.0343719009
  Root  24         a              0.247299278 a.u.                6.7294 eV
     Dipole Oscillator Strength                    0.0007044690
  Root  25         a              0.248424354 a.u.                6.7600 eV
     Dipole Oscillator Strength                    0.0000000106
  Root  26         a              0.251199231 a.u.                6.8355 eV
     Dipole Oscillator Strength                    0.0471073257
  Root  27         a              0.252044188 a.u.                6.8585 eV
     Dipole Oscillator Strength                    0.0101267052
  Root  28         a              0.252516361 a.u.                6.8713 eV
     Dipole Oscillator Strength                    0.0000001492
  Root  29         a              0.253873712 a.u.                6.9083 eV
     Dipole Oscillator Strength                    0.0000000005
  Root  30         a              0.254787554 a.u.                6.9331 eV
     Dipole Oscillator Strength                    0.3863493376
  Root  31         a              0.255476662 a.u.                6.9519 eV
     Dipole Oscillator Strength                    0.0688023557
  Root  32         a              0.260790758 a.u.                7.0965 eV
     Dipole Oscillator Strength                    0.0015976446
  Root  33         a              0.265470746 a.u.                7.2238 eV
     Dipole Oscillator Strength                    0.0000000001
  Root  34         a              0.267238858 a.u.                7.2719 eV
     Dipole Oscillator Strength                    0.2566900974
  Root  35         a              0.270689605 a.u.                7.3658 eV
     Dipole Oscillator Strength                    0.0000157957
  Root  36         a              0.271161131 a.u.                7.3787 eV
     Dipole Oscillator Strength                    0.0004239982
  Root  37         a              0.271692216 a.u.                7.3931 eV
     Dipole Oscillator Strength                    0.0001016550
  Root  38         a              0.271813833 a.u.                7.3964 eV
     Dipole Oscillator Strength                    0.0494615742
  Root  39         a              0.272358394 a.u.                7.4113 eV
     Dipole Oscillator Strength                    0.0000000009
  Root  40         a              0.272610719 a.u.                7.4181 eV
     Dipole Oscillator Strength                    0.0003266111
 Total times  cpu:     2973.9s     wall:     3066.5s
