============================== echo of input deck ==============================
echo
start

title "None"

geometry
C    -0.08626452    1.38838019    0.00000005
C    -1.26765787    0.69083224   -0.00000002
C    -1.16790693   -0.70413677   -0.00000002
C     0.08333512   -1.31596275    0.00000004
C     1.24606182   -0.55325632   -0.00000001
C     1.17024927    0.84497557    0.00000005
H    -2.23288304    1.17924339   -0.00000010
H    -2.06602006   -1.30855634   -0.00000009
H     0.15143743   -2.39534197    0.00000000
H     2.21619774   -1.03352529   -0.00000013
H     2.06482738    1.45321655   -0.00000010
symmetry c1
end

basis spherical
 * library "aug-cc-pvtz"
end

dft
 direct
 mult 2
 iterations 500
 xc b3lyp
end

tddft
 nroots 40
 notriplet
 algorithm 1
end
task tddft energy
================================================================================

 Output coordinates in angstroms (scale by  1.889725989 to convert to a.u.)

  No.       Tag          Charge          X              Y              Z
 ---- ---------------- ---------- -------------- -------------- --------------
    1 C                    6.0000    -0.08627576     1.38837948     0.00000005
    2 C                    6.0000    -1.26766911     0.69083153    -0.00000002
    3 C                    6.0000    -1.16791817    -0.70413748    -0.00000002
    4 C                    6.0000     0.08332388    -1.31596346     0.00000004
    5 C                    6.0000     1.24605058    -0.55325703    -0.00000001
    6 C                    6.0000     1.17023803     0.84497486     0.00000005
    7 H                    1.0000    -2.23289428     1.17924268    -0.00000010
    8 H                    1.0000    -2.06603130    -1.30855705    -0.00000009
    9 H                    1.0000     0.15142619    -2.39534268    -0.00000000
   10 H                    1.0000     2.21618650    -1.03352600    -0.00000013
   11 H                    1.0000     2.06481614     1.45321584    -0.00000010

         Total DFT energy =     -231.646314418593

                    DFT Final Alpha Molecular Orbital Analysis
                    ------------------------------------------

 Vector    1  Occ=1.000000D+00  E=-1.020519D+01

 Vector  305  Occ=0.000000D+00  E= 3.874539D+00

 Vector  306  Occ=0.000000D+00  E= 3.900091D+00

 Vector  307  Occ=0.000000D+00  E= 3.910017D+00

 Vector  308  Occ=0.000000D+00  E= 3.921927D+00

 Vector  309  Occ=0.000000D+00  E= 3.926192D+00

 Vector  310  Occ=0.000000D+00  E= 3.952178D+00

 Vector  311  Occ=0.000000D+00  E= 3.958885D+00

 Vector  312  Occ=0.000000D+00  E= 3.962756D+00

 Vector  313  Occ=0.000000D+00  E= 3.989404D+00

 Vector  314  Occ=0.000000D+00  E= 3.994102D+00

 Vector  315  Occ=0.000000D+00  E= 4.010677D+00

 Vector  316  Occ=0.000000D+00  E= 4.033013D+00

 Vector  317  Occ=0.000000D+00  E= 4.060685D+00

 Vector  318  Occ=0.000000D+00  E= 4.069969D+00

 Vector  319  Occ=0.000000D+00  E= 4.102862D+00

 Vector  320  Occ=0.000000D+00  E= 4.103509D+00

 Vector  321  Occ=0.000000D+00  E= 4.105858D+00

 Vector  322  Occ=0.000000D+00  E= 4.153955D+00

 Vector  323  Occ=0.000000D+00  E= 4.206758D+00

 Vector  324  Occ=0.000000D+00  E= 4.230599D+00

 Vector  325  Occ=0.000000D+00  E= 4.236932D+00

 Vector  326  Occ=0.000000D+00  E= 4.330818D+00

 Vector  327  Occ=0.000000D+00  E= 4.345421D+00

 Vector  328  Occ=0.000000D+00  E= 4.390413D+00

 Vector  329  Occ=0.000000D+00  E= 4.420657D+00

 Vector  330  Occ=0.000000D+00  E= 4.444567D+00

 Vector  331  Occ=0.000000D+00  E= 4.462530D+00

 Vector  332  Occ=0.000000D+00  E= 4.485926D+00

 Vector  333  Occ=0.000000D+00  E= 4.490558D+00

 Vector  334  Occ=0.000000D+00  E= 4.506273D+00

 Vector  335  Occ=0.000000D+00  E= 4.520554D+00

 Vector  336  Occ=0.000000D+00  E= 4.575909D+00

 Vector  337  Occ=0.000000D+00  E= 4.627107D+00

 Vector  338  Occ=0.000000D+00  E= 4.651210D+00

 Vector  339  Occ=0.000000D+00  E= 4.658402D+00

 Vector  340  Occ=0.000000D+00  E= 4.705169D+00

 Vector  341  Occ=0.000000D+00  E= 4.720318D+00

 Vector  342  Occ=0.000000D+00  E= 4.750723D+00

 Vector  343  Occ=0.000000D+00  E= 4.754467D+00

 Vector  344  Occ=0.000000D+00  E= 4.767693D+00

 Vector  345  Occ=0.000000D+00  E= 4.802175D+00

 Vector  346  Occ=0.000000D+00  E= 4.805136D+00

 Vector  347  Occ=0.000000D+00  E= 4.807673D+00

 Vector  348  Occ=0.000000D+00  E= 4.822848D+00

 Vector  349  Occ=0.000000D+00  E= 4.857648D+00

 Vector  350  Occ=0.000000D+00  E= 4.903529D+00

 Vector  351  Occ=0.000000D+00  E= 4.933814D+00

 Vector  352  Occ=0.000000D+00  E= 4.949582D+00

 Vector  353  Occ=0.000000D+00  E= 4.959839D+00

 Vector  354  Occ=0.000000D+00  E= 4.982641D+00

 Vector  355  Occ=0.000000D+00  E= 5.085634D+00

 Vector  356  Occ=0.000000D+00  E= 5.088930D+00

 Vector  357  Occ=0.000000D+00  E= 5.093035D+00

 Vector  358  Occ=0.000000D+00  E= 5.166968D+00

 Vector  359  Occ=0.000000D+00  E= 5.260270D+00

 Vector  360  Occ=0.000000D+00  E= 5.322805D+00

 Vector  361  Occ=0.000000D+00  E= 5.324035D+00

 Vector  362  Occ=0.000000D+00  E= 5.410690D+00

 Vector  363  Occ=0.000000D+00  E= 5.415753D+00

 Vector  364  Occ=0.000000D+00  E= 5.436322D+00

 Vector  365  Occ=0.000000D+00  E= 5.620407D+00

 Vector  366  Occ=0.000000D+00  E= 5.635050D+00

 Vector  367  Occ=0.000000D+00  E= 5.682430D+00

 Vector  368  Occ=0.000000D+00  E= 5.749006D+00

 Vector  369  Occ=0.000000D+00  E= 5.802491D+00

 Vector  370  Occ=0.000000D+00  E= 5.919750D+00

 Vector  371  Occ=0.000000D+00  E= 5.930064D+00

 Vector  372  Occ=0.000000D+00  E= 6.047823D+00

 Vector  373  Occ=0.000000D+00  E= 6.165638D+00

 Vector  374  Occ=0.000000D+00  E= 6.253079D+00

 Vector  375  Occ=0.000000D+00  E= 6.406627D+00

 Vector  376  Occ=0.000000D+00  E= 6.449931D+00

 Vector  377  Occ=0.000000D+00  E= 6.604554D+00

 Vector  378  Occ=0.000000D+00  E= 6.864746D+00

 Vector  379  Occ=0.000000D+00  E= 1.504878D+01

 Vector  380  Occ=0.000000D+00  E= 1.506666D+01

 Vector  381  Occ=0.000000D+00  E= 1.597870D+01

 Vector  382  Occ=0.000000D+00  E= 1.764809D+01

 Vector  383  Occ=0.000000D+00  E= 1.800490D+01

 Vector  384  Occ=0.000000D+00  E= 1.806325D+01

     Multipole analysis of the density
     ---------------------------------

     L   x y z        total         alpha         beta         nuclear
     -   - - -        -----         -----         ----         -------
     0   0 0 0     -0.000000    -21.000000    -20.000000     41.000000

     1   1 0 0      0.021064      0.105094     -0.084030      0.000000
     1   0 1 0     -0.340111     -1.694350      1.354238     -0.000000
     1   0 0 1     -0.000001     -0.000001     -0.000000      0.000000

     2   2 0 0    -22.666756   -108.562438   -106.574686    192.470368
     2   1 1 0      0.198094     -0.514794     -1.135477      1.848365
     2   1 0 1      0.000000     -0.000001     -0.000001      0.000002
     2   0 2 0    -25.675796   -100.812644    -88.901991    164.038839
     2   0 1 1     -0.000005     -0.000003     -0.000003      0.000001

  Root   1         a              0.106135221 a.u.                2.8881 eV
     Dipole Oscillator Strength                    0.0012091868
  Root   2         a              0.126006624 a.u.                3.4288 eV
     Dipole Oscillator Strength                    0.0000000000
  Root   3         a              0.143185595 a.u.                3.8963 eV
     Dipole Oscillator Strength                    0.0000123540
  Root   4         a              0.170297828 a.u.                4.6340 eV
     Dipole Oscillator Strength                    0.0000003031
  Root   5         a              0.171391520 a.u.                4.6638 eV
     Dipole Oscillator Strength                    0.0002472677
  Root   6         a              0.173812742 a.u.                4.7297 eV
     Dipole Oscillator Strength                    0.0037708400
  Root   7         a              0.177179954 a.u.                4.8213 eV
     Dipole Oscillator Strength                    0.0000140656
  Root   8         a              0.191910571 a.u.                5.2222 eV
     Dipole Oscillator Strength                    0.0006750163
  Root   9         a              0.201737628 a.u.                5.4896 eV
     Dipole Oscillator Strength                    0.0064501988
  Root  10         a              0.210938506 a.u.                5.7399 eV
     Dipole Oscillator Strength                    0.0075781898
  Root  11         a              0.215594659 a.u.                5.8666 eV
     Dipole Oscillator Strength                    0.0015028511
  Root  12         a              0.223060984 a.u.                6.0698 eV
     Dipole Oscillator Strength                    0.0002785426
  Root  13         a              0.224532258 a.u.                6.1098 eV
     Dipole Oscillator Strength                    0.0040438814
  Root  14         a              0.228484428 a.u.                6.2174 eV
     Dipole Oscillator Strength                    0.0092175406
  Root  15         a              0.228628673 a.u.                6.2213 eV
     Dipole Oscillator Strength                    0.0000009702
  Root  16         a              0.229645710 a.u.                6.2490 eV
     Dipole Oscillator Strength                    0.0009837114
  Root  17         a              0.229988865 a.u.                6.2583 eV
     Dipole Oscillator Strength                    0.0000053741
  Root  18         a              0.232163207 a.u.                6.3175 eV
     Dipole Oscillator Strength                    0.0225134455
  Root  19         a              0.235320289 a.u.                6.4034 eV
     Dipole Oscillator Strength                    0.0001724417
  Root  20         a              0.241741015 a.u.                6.5781 eV
     Dipole Oscillator Strength                    0.0000000575
  Root  21         a              0.242553248 a.u.                6.6002 eV
     Dipole Oscillator Strength                    0.0947952620
  Root  22         a              0.245300843 a.u.                6.6750 eV
     Dipole Oscillator Strength                    0.0020141705
  Root  23         a              0.246407230 a.u.                6.7051 eV
     Dipole Oscillator Strength                    0.0332141406
  Root  24         a              0.247304659 a.u.                6.7295 eV
     Dipole Oscillator Strength                    0.0012845630
  Root  25         a              0.248310811 a.u.                6.7569 eV
     Dipole Oscillator Strength                    0.0000078838
  Root  26         a              0.251109290 a.u.                6.8330 eV
     Dipole Oscillator Strength                    0.0454791870
  Root  27         a              0.251966623 a.u.                6.8564 eV
     Dipole Oscillator Strength                    0.0100250962
  Root  28         a              0.252670486 a.u.                6.8755 eV
     Dipole Oscillator Strength                    0.0000290812
  Root  29         a              0.253988828 a.u.                6.9114 eV
     Dipole Oscillator Strength                    0.0000000795
  Root  30         a              0.254730878 a.u.                6.9316 eV
     Dipole Oscillator Strength                    0.3868044626
  Root  31         a              0.255323883 a.u.                6.9477 eV
     Dipole Oscillator Strength                    0.0690356156
  Root  32         a              0.260670750 a.u.                7.0932 eV
     Dipole Oscillator Strength                    0.0015914780
  Root  33         a              0.265425180 a.u.                7.2226 eV
     Dipole Oscillator Strength                    0.0000000150
  Root  34         a              0.267152496 a.u.                7.2696 eV
     Dipole Oscillator Strength                    0.2567978045
  Root  35         a              0.270842098 a.u.                7.3700 eV
     Dipole Oscillator Strength                    0.0000154089
  Root  36         a              0.271247135 a.u.                7.3810 eV
     Dipole Oscillator Strength                    0.0004212877
  Root  37         a              0.271694792 a.u.                7.3932 eV
     Dipole Oscillator Strength                    0.0510757893
  Root  38         a              0.271827126 a.u.                7.3968 eV
     Dipole Oscillator Strength                    0.0001131163
  Root  39         a              0.272285127 a.u.                7.4093 eV
     Dipole Oscillator Strength                    0.0000008484
  Root  40         a              0.272526171 a.u.                7.4158 eV
     Dipole Oscillator Strength                    0.0003131365
 Total times  cpu:     2900.2s     wall:     3010.0s
