============================== echo of input deck ==============================
echo
start

title "None"

geometry
C    -0.08749940    1.38873187    0.00000005
C    -1.26740960    0.69005939   -0.00000002
C    -1.16805211   -0.70320933   -0.00000002
C     0.08297682   -1.31695259    0.00000004
C     1.24707805   -0.55104053   -0.00000001
C     1.17077388    0.84368100    0.00000005
H    -2.23114286    1.18127333   -0.00000010
H    -2.06570050   -1.30829220   -0.00000009
H     0.15099217   -2.39645819    0.00000000
H     2.21357468   -1.03866954   -0.00000013
H     2.06523137    1.45197283   -0.00000010
symmetry c1
end

basis spherical
 * library "aug-cc-pvtz"
end

dft
 direct
 mult 2
 iterations 500
 xc b3lyp
end

tddft
 nroots 40
 notriplet
 algorithm 1
end
task tddft energy
================================================================================

 Output coordinates in angstroms (scale by  1.889725989 to convert to a.u.)

  No.       Tag          Charge          X              Y              Z
 ---- ---------------- ---------- -------------- -------------- --------------
    1 C                    6.0000    -0.08750332     1.38879418     0.00000005
    2 C                    6.0000    -1.26741352     0.69012170    -0.00000002
    3 C                    6.0000    -1.16805603    -0.70314702    -0.00000002
    4 C                    6.0000     0.08297290    -1.31689028     0.00000004
    5 C                    6.0000     1.24707413    -0.55097822    -0.00000001
    6 C                    6.0000     1.17076996     0.84374331     0.00000005
    7 H                    1.0000    -2.23114678     1.18133564    -0.00000010
    8 H                    1.0000    -2.06570442    -1.30822989    -0.00000009
    9 H                    1.0000     0.15098825    -2.39639588    -0.00000000
   10 H                    1.0000     2.21357076    -1.03860723    -0.00000013
   11 H                    1.0000     2.06522745     1.45203514    -0.00000010

         Total DFT energy =     -231.646306632801

                    DFT Final Alpha Molecular Orbital Analysis
                    ------------------------------------------

 Vector    1  Occ=1.000000D+00  E=-1.020552D+01

 Vector  305  Occ=0.000000D+00  E= 3.874767D+00

 Vector  306  Occ=0.000000D+00  E= 3.900646D+00

 Vector  307  Occ=0.000000D+00  E= 3.910220D+00

 Vector  308  Occ=0.000000D+00  E= 3.921718D+00

 Vector  309  Occ=0.000000D+00  E= 3.925675D+00

 Vector  310  Occ=0.000000D+00  E= 3.952631D+00

 Vector  311  Occ=0.000000D+00  E= 3.958284D+00

 Vector  312  Occ=0.000000D+00  E= 3.963069D+00

 Vector  313  Occ=0.000000D+00  E= 3.990314D+00

 Vector  314  Occ=0.000000D+00  E= 3.993528D+00

 Vector  315  Occ=0.000000D+00  E= 4.011310D+00

 Vector  316  Occ=0.000000D+00  E= 4.032585D+00

 Vector  317  Occ=0.000000D+00  E= 4.061477D+00

 Vector  318  Occ=0.000000D+00  E= 4.069021D+00

 Vector  319  Occ=0.000000D+00  E= 4.102239D+00

 Vector  320  Occ=0.000000D+00  E= 4.103221D+00

 Vector  321  Occ=0.000000D+00  E= 4.105911D+00

 Vector  322  Occ=0.000000D+00  E= 4.155729D+00

 Vector  323  Occ=0.000000D+00  E= 4.206855D+00

 Vector  324  Occ=0.000000D+00  E= 4.232523D+00

 Vector  325  Occ=0.000000D+00  E= 4.236977D+00

 Vector  326  Occ=0.000000D+00  E= 4.330636D+00

 Vector  327  Occ=0.000000D+00  E= 4.347443D+00

 Vector  328  Occ=0.000000D+00  E= 4.388295D+00

 Vector  329  Occ=0.000000D+00  E= 4.418406D+00

 Vector  330  Occ=0.000000D+00  E= 4.444783D+00

 Vector  331  Occ=0.000000D+00  E= 4.463610D+00

 Vector  332  Occ=0.000000D+00  E= 4.485225D+00

 Vector  333  Occ=0.000000D+00  E= 4.492723D+00

 Vector  334  Occ=0.000000D+00  E= 4.508222D+00

 Vector  335  Occ=0.000000D+00  E= 4.521197D+00

 Vector  336  Occ=0.000000D+00  E= 4.572548D+00

 Vector  337  Occ=0.000000D+00  E= 4.628540D+00

 Vector  338  Occ=0.000000D+00  E= 4.651016D+00

 Vector  339  Occ=0.000000D+00  E= 4.659691D+00

 Vector  340  Occ=0.000000D+00  E= 4.704584D+00

 Vector  341  Occ=0.000000D+00  E= 4.718848D+00

 Vector  342  Occ=0.000000D+00  E= 4.750861D+00

 Vector  343  Occ=0.000000D+00  E= 4.755176D+00

 Vector  344  Occ=0.000000D+00  E= 4.766271D+00

 Vector  345  Occ=0.000000D+00  E= 4.802722D+00

 Vector  346  Occ=0.000000D+00  E= 4.803944D+00

 Vector  347  Occ=0.000000D+00  E= 4.810911D+00

 Vector  348  Occ=0.000000D+00  E= 4.823662D+00

 Vector  349  Occ=0.000000D+00  E= 4.854248D+00

 Vector  350  Occ=0.000000D+00  E= 4.904149D+00

 Vector  351  Occ=0.000000D+00  E= 4.932015D+00

 Vector  352  Occ=0.000000D+00  E= 4.950193D+00

 Vector  353  Occ=0.000000D+00  E= 4.958187D+00

 Vector  354  Occ=0.000000D+00  E= 4.982064D+00

 Vector  355  Occ=0.000000D+00  E= 5.084979D+00

 Vector  356  Occ=0.000000D+00  E= 5.089819D+00

 Vector  357  Occ=0.000000D+00  E= 5.094070D+00

 Vector  358  Occ=0.000000D+00  E= 5.166932D+00

 Vector  359  Occ=0.000000D+00  E= 5.260492D+00

 Vector  360  Occ=0.000000D+00  E= 5.320345D+00

 Vector  361  Occ=0.000000D+00  E= 5.324673D+00

 Vector  362  Occ=0.000000D+00  E= 5.411987D+00

 Vector  363  Occ=0.000000D+00  E= 5.416318D+00

 Vector  364  Occ=0.000000D+00  E= 5.435874D+00

 Vector  365  Occ=0.000000D+00  E= 5.621740D+00

 Vector  366  Occ=0.000000D+00  E= 5.633907D+00

 Vector  367  Occ=0.000000D+00  E= 5.682852D+00

 Vector  368  Occ=0.000000D+00  E= 5.748539D+00

 Vector  369  Occ=0.000000D+00  E= 5.801280D+00

 Vector  370  Occ=0.000000D+00  E= 5.918066D+00

 Vector  371  Occ=0.000000D+00  E= 5.929798D+00

 Vector  372  Occ=0.000000D+00  E= 6.051161D+00

 Vector  373  Occ=0.000000D+00  E= 6.163445D+00

 Vector  374  Occ=0.000000D+00  E= 6.254947D+00

 Vector  375  Occ=0.000000D+00  E= 6.411038D+00

 Vector  376  Occ=0.000000D+00  E= 6.447179D+00

 Vector  377  Occ=0.000000D+00  E= 6.604368D+00

 Vector  378  Occ=0.000000D+00  E= 6.863761D+00

 Vector  379  Occ=0.000000D+00  E= 1.502041D+01

 Vector  380  Occ=0.000000D+00  E= 1.508557D+01

 Vector  381  Occ=0.000000D+00  E= 1.598557D+01

 Vector  382  Occ=0.000000D+00  E= 1.765708D+01

 Vector  383  Occ=0.000000D+00  E= 1.799115D+01

 Vector  384  Occ=0.000000D+00  E= 1.806358D+01

     Multipole analysis of the density
     ---------------------------------

     L   x y z        total         alpha         beta         nuclear
     -   - - -        -----         -----         ----         -------
     0   0 0 0     -0.000000    -21.000000    -20.000000     41.000000

     1   1 0 0      0.021479      0.107013     -0.085534      0.000000
     1   0 1 0     -0.339880     -1.697927      1.358047     -0.000000
     1   0 0 1     -0.000001     -0.000001     -0.000000      0.000000

     2   2 0 0    -22.688119   -108.571777   -106.595940    192.479598
     2   1 1 0      0.187918     -0.491378     -1.120702      1.799998
     2   1 0 1      0.000000     -0.000001     -0.000001      0.000002
     2   0 2 0    -25.658812   -100.803749    -88.879475    164.024412
     2   0 1 1     -0.000005     -0.000003     -0.000003      0.000001

  Root   1         a              0.105664026 a.u.                2.8753 eV
     Dipole Oscillator Strength                    0.0012119330
  Root   2         a              0.126217868 a.u.                3.4346 eV
     Dipole Oscillator Strength                    0.0000000000
  Root   3         a              0.143466141 a.u.                3.9039 eV
     Dipole Oscillator Strength                    0.0000126040
  Root   4         a              0.171499859 a.u.                4.6668 eV
     Dipole Oscillator Strength                    0.0000000000
  Root   5         a              0.171536880 a.u.                4.6678 eV
     Dipole Oscillator Strength                    0.0002490074
  Root   6         a              0.174009226 a.u.                4.7350 eV
     Dipole Oscillator Strength                    0.0037533810
  Root   7         a              0.176904938 a.u.                4.8138 eV
     Dipole Oscillator Strength                    0.0000114445
  Root   8         a              0.191836327 a.u.                5.2201 eV
     Dipole Oscillator Strength                    0.0007029131
  Root   9         a              0.201775200 a.u.                5.4906 eV
     Dipole Oscillator Strength                    0.0064762653
  Root  10         a              0.211622757 a.u.                5.7586 eV
     Dipole Oscillator Strength                    0.0077373282
  Root  11         a              0.214650187 a.u.                5.8409 eV
     Dipole Oscillator Strength                    0.0014017760
  Root  12         a              0.222625424 a.u.                6.0579 eV
     Dipole Oscillator Strength                    0.0002917347
  Root  13         a              0.224641114 a.u.                6.1128 eV
     Dipole Oscillator Strength                    0.0023063114
  Root  14         a              0.229019414 a.u.                6.2319 eV
     Dipole Oscillator Strength                    0.0000000002
  Root  15         a              0.229177583 a.u.                6.2362 eV
     Dipole Oscillator Strength                    0.0090635270
  Root  16         a              0.229258798 a.u.                6.2385 eV
     Dipole Oscillator Strength                    0.0010165714
  Root  17         a              0.230409010 a.u.                6.2698 eV
     Dipole Oscillator Strength                    0.0000000000
  Root  18         a              0.232827167 a.u.                6.3356 eV
     Dipole Oscillator Strength                    0.0211918884
  Root  19         a              0.235093839 a.u.                6.3972 eV
     Dipole Oscillator Strength                    0.0001767731
  Root  20         a              0.241323472 a.u.                6.5667 eV
     Dipole Oscillator Strength                    0.0000000000
  Root  21         a              0.242965310 a.u.                6.6114 eV
     Dipole Oscillator Strength                    0.1013698315
  Root  22         a              0.245320013 a.u.                6.6755 eV
     Dipole Oscillator Strength                    0.0057154759
  Root  23         a              0.246544206 a.u.                6.7088 eV
     Dipole Oscillator Strength                    0.0233765110
  Root  24         a              0.247497356 a.u.                6.7347 eV
     Dipole Oscillator Strength                    0.0077062475
  Root  25         a              0.247963737 a.u.                6.7474 eV
     Dipole Oscillator Strength                    0.0000000001
  Root  26         a              0.251570974 a.u.                6.8456 eV
     Dipole Oscillator Strength                    0.0096837552
  Root  27         a              0.251666896 a.u.                6.8482 eV
     Dipole Oscillator Strength                    0.0654809927
  Root  28         a              0.252982604 a.u.                6.8840 eV
     Dipole Oscillator Strength                    0.0000000005
  Root  29         a              0.254395058 a.u.                6.9224 eV
     Dipole Oscillator Strength                    0.0000000008
  Root  30         a              0.254910831 a.u.                6.9365 eV
     Dipole Oscillator Strength                    0.3690355273
  Root  31         a              0.255983833 a.u.                6.9657 eV
     Dipole Oscillator Strength                    0.0730132282
  Root  32         a              0.261314907 a.u.                7.1107 eV
     Dipole Oscillator Strength                    0.0016236251
  Root  33         a              0.264972333 a.u.                7.2103 eV
     Dipole Oscillator Strength                    0.0000000000
  Root  34         a              0.267156477 a.u.                7.2697 eV
     Dipole Oscillator Strength                    0.2635374509
  Root  35         a              0.271196837 a.u.                7.3796 eV
     Dipole Oscillator Strength                    0.0000249022
  Root  36         a              0.271684674 a.u.                7.3929 eV
     Dipole Oscillator Strength                    0.0004150524
  Root  37         a              0.271868153 a.u.                7.3979 eV
     Dipole Oscillator Strength                    0.0000000000
  Root  38         a              0.272002820 a.u.                7.4016 eV
     Dipole Oscillator Strength                    0.0180492596
  Root  39         a              0.272055393 a.u.                7.4030 eV
     Dipole Oscillator Strength                    0.0004279835
  Root  40         a              0.272270581 a.u.                7.4089 eV
     Dipole Oscillator Strength                    0.0000017386
 Total times  cpu:     2963.2s     wall:     3072.7s
