============================== echo of input deck ==============================
echo
start

title "None"

geometry
C    -0.08738595    1.38830730    0.00000005
C    -1.26744105    0.69112864   -0.00000002
C    -1.16753824   -0.70453758   -0.00000002
C     0.08333068   -1.31596436    0.00000004
C     1.24639108   -0.55279301   -0.00000001
C     1.17051102    0.84469334    0.00000005
H    -2.23237993    1.18011353   -0.00000010
H    -2.06893073   -1.30401374   -0.00000009
H     0.15476411   -2.39513377    0.00000000
H     2.21396999   -1.03822632   -0.00000013
H     2.06553234    1.45227095   -0.00000010
symmetry c1
end

basis spherical
 * library "aug-cc-pvtz"
end

dft
 direct
 mult 2
 iterations 500
 xc b3lyp
end

tddft
 nroots 40
 notriplet
 algorithm 1
end
task tddft energy
================================================================================

 Output coordinates in angstroms (scale by  1.889725989 to convert to a.u.)

  No.       Tag          Charge          X              Y              Z
 ---- ---------------- ---------- -------------- -------------- --------------
    1 C                    6.0000    -0.08738988     1.38830689     0.00000005
    2 C                    6.0000    -1.26744498     0.69112823    -0.00000002
    3 C                    6.0000    -1.16754217    -0.70453799    -0.00000002
    4 C                    6.0000     0.08332675    -1.31596477     0.00000004
    5 C                    6.0000     1.24638715    -0.55279342    -0.00000001
    6 C                    6.0000     1.17050709     0.84469293     0.00000005
    7 H                    1.0000    -2.23238386     1.18011312    -0.00000010
    8 H                    1.0000    -2.06893466    -1.30401415    -0.00000009
    9 H                    1.0000     0.15476018    -2.39513418    -0.00000000
   10 H                    1.0000     2.21396606    -1.03822673    -0.00000013
   11 H                    1.0000     2.06552841     1.45227054    -0.00000010

         Total DFT energy =     -231.646319077765

                    DFT Final Alpha Molecular Orbital Analysis
                    ------------------------------------------

 Vector    1  Occ=1.000000D+00  E=-1.020519D+01

 Vector  305  Occ=0.000000D+00  E= 3.874542D+00

 Vector  306  Occ=0.000000D+00  E= 3.900128D+00

 Vector  307  Occ=0.000000D+00  E= 3.910015D+00

 Vector  308  Occ=0.000000D+00  E= 3.921927D+00

 Vector  309  Occ=0.000000D+00  E= 3.926224D+00

 Vector  310  Occ=0.000000D+00  E= 3.952325D+00

 Vector  311  Occ=0.000000D+00  E= 3.958700D+00

 Vector  312  Occ=0.000000D+00  E= 3.962750D+00

 Vector  313  Occ=0.000000D+00  E= 3.989415D+00

 Vector  314  Occ=0.000000D+00  E= 3.994122D+00

 Vector  315  Occ=0.000000D+00  E= 4.010660D+00

 Vector  316  Occ=0.000000D+00  E= 4.033015D+00

 Vector  317  Occ=0.000000D+00  E= 4.060682D+00

 Vector  318  Occ=0.000000D+00  E= 4.069984D+00

 Vector  319  Occ=0.000000D+00  E= 4.102736D+00

 Vector  320  Occ=0.000000D+00  E= 4.103673D+00

 Vector  321  Occ=0.000000D+00  E= 4.105833D+00

 Vector  322  Occ=0.000000D+00  E= 4.153955D+00

 Vector  323  Occ=0.000000D+00  E= 4.206786D+00

 Vector  324  Occ=0.000000D+00  E= 4.230494D+00

 Vector  325  Occ=0.000000D+00  E= 4.236945D+00

 Vector  326  Occ=0.000000D+00  E= 4.330817D+00

 Vector  327  Occ=0.000000D+00  E= 4.345438D+00

 Vector  328  Occ=0.000000D+00  E= 4.390451D+00

 Vector  329  Occ=0.000000D+00  E= 4.420614D+00

 Vector  330  Occ=0.000000D+00  E= 4.444540D+00

 Vector  331  Occ=0.000000D+00  E= 4.462489D+00

 Vector  332  Occ=0.000000D+00  E= 4.485902D+00

 Vector  333  Occ=0.000000D+00  E= 4.490650D+00

 Vector  334  Occ=0.000000D+00  E= 4.506276D+00

 Vector  335  Occ=0.000000D+00  E= 4.520554D+00

 Vector  336  Occ=0.000000D+00  E= 4.575849D+00

 Vector  337  Occ=0.000000D+00  E= 4.627080D+00

 Vector  338  Occ=0.000000D+00  E= 4.651174D+00

 Vector  339  Occ=0.000000D+00  E= 4.658294D+00

 Vector  340  Occ=0.000000D+00  E= 4.705139D+00

 Vector  341  Occ=0.000000D+00  E= 4.720331D+00

 Vector  342  Occ=0.000000D+00  E= 4.750719D+00

 Vector  343  Occ=0.000000D+00  E= 4.754520D+00

 Vector  344  Occ=0.000000D+00  E= 4.767786D+00

 Vector  345  Occ=0.000000D+00  E= 4.802279D+00

 Vector  346  Occ=0.000000D+00  E= 4.805039D+00

 Vector  347  Occ=0.000000D+00  E= 4.807653D+00

 Vector  348  Occ=0.000000D+00  E= 4.822835D+00

 Vector  349  Occ=0.000000D+00  E= 4.857677D+00

 Vector  350  Occ=0.000000D+00  E= 4.903453D+00

 Vector  351  Occ=0.000000D+00  E= 4.933830D+00

 Vector  352  Occ=0.000000D+00  E= 4.949574D+00

 Vector  353  Occ=0.000000D+00  E= 4.959834D+00

 Vector  354  Occ=0.000000D+00  E= 4.982640D+00

 Vector  355  Occ=0.000000D+00  E= 5.085490D+00

 Vector  356  Occ=0.000000D+00  E= 5.089097D+00

 Vector  357  Occ=0.000000D+00  E= 5.093048D+00

 Vector  358  Occ=0.000000D+00  E= 5.166990D+00

 Vector  359  Occ=0.000000D+00  E= 5.260262D+00

 Vector  360  Occ=0.000000D+00  E= 5.322702D+00

 Vector  361  Occ=0.000000D+00  E= 5.324151D+00

 Vector  362  Occ=0.000000D+00  E= 5.410747D+00

 Vector  363  Occ=0.000000D+00  E= 5.415684D+00

 Vector  364  Occ=0.000000D+00  E= 5.436334D+00

 Vector  365  Occ=0.000000D+00  E= 5.620384D+00

 Vector  366  Occ=0.000000D+00  E= 5.635048D+00

 Vector  367  Occ=0.000000D+00  E= 5.682427D+00

 Vector  368  Occ=0.000000D+00  E= 5.749060D+00

 Vector  369  Occ=0.000000D+00  E= 5.802502D+00

 Vector  370  Occ=0.000000D+00  E= 5.919781D+00

 Vector  371  Occ=0.000000D+00  E= 5.930035D+00

 Vector  372  Occ=0.000000D+00  E= 6.047750D+00

 Vector  373  Occ=0.000000D+00  E= 6.165624D+00

 Vector  374  Occ=0.000000D+00  E= 6.253097D+00

 Vector  375  Occ=0.000000D+00  E= 6.406661D+00

 Vector  376  Occ=0.000000D+00  E= 6.449996D+00

 Vector  377  Occ=0.000000D+00  E= 6.604513D+00

 Vector  378  Occ=0.000000D+00  E= 6.864777D+00

 Vector  379  Occ=0.000000D+00  E= 1.504819D+01

 Vector  380  Occ=0.000000D+00  E= 1.506711D+01

 Vector  381  Occ=0.000000D+00  E= 1.597860D+01

 Vector  382  Occ=0.000000D+00  E= 1.764799D+01

 Vector  383  Occ=0.000000D+00  E= 1.800455D+01

 Vector  384  Occ=0.000000D+00  E= 1.806362D+01

     Multipole analysis of the density
     ---------------------------------

     L   x y z        total         alpha         beta         nuclear
     -   - - -        -----         -----         ----         -------
     0   0 0 0     -0.000000    -21.000000    -20.000000     41.000000

     1   1 0 0      0.020709      0.106504     -0.085795     -0.000000
     1   0 1 0     -0.340166     -1.694277      1.354111     -0.000000
     1   0 0 1     -0.000001     -0.000001     -0.000000      0.000000

     2   2 0 0    -22.664332   -108.570801   -106.582290    192.488759
     2   1 1 0      0.183039     -0.463152     -1.089445      1.735637
     2   1 0 1      0.000000     -0.000001     -0.000001      0.000002
     2   0 2 0    -25.678297   -100.804376    -88.894548    164.020627
     2   0 1 1     -0.000005     -0.000004     -0.000003      0.000001

  Root   1         a              0.106130138 a.u.                2.8879 eV
     Dipole Oscillator Strength                    0.0012091480
  Root   2         a              0.126008173 a.u.                3.4289 eV
     Dipole Oscillator Strength                    0.0000000043
  Root   3         a              0.143185911 a.u.                3.8963 eV
     Dipole Oscillator Strength                    0.0000123595
  Root   4         a              0.170299994 a.u.                4.6341 eV
     Dipole Oscillator Strength                    0.0000015769
  Root   5         a              0.171390891 a.u.                4.6638 eV
     Dipole Oscillator Strength                    0.0002472659
  Root   6         a              0.173808710 a.u.                4.7296 eV
     Dipole Oscillator Strength                    0.0037696423
  Root   7         a              0.177176056 a.u.                4.8212 eV
     Dipole Oscillator Strength                    0.0000140453
  Root   8         a              0.191908060 a.u.                5.2221 eV
     Dipole Oscillator Strength                    0.0006750023
  Root   9         a              0.201735719 a.u.                5.4895 eV
     Dipole Oscillator Strength                    0.0064493307
  Root  10         a              0.210938615 a.u.                5.7399 eV
     Dipole Oscillator Strength                    0.0075785758
  Root  11         a              0.215599531 a.u.                5.8668 eV
     Dipole Oscillator Strength                    0.0015032159
  Root  12         a              0.223056813 a.u.                6.0697 eV
     Dipole Oscillator Strength                    0.0002785354
  Root  13         a              0.224531407 a.u.                6.1098 eV
     Dipole Oscillator Strength                    0.0040266711
  Root  14         a              0.228483469 a.u.                6.2174 eV
     Dipole Oscillator Strength                    0.0092193938
  Root  15         a              0.228630586 a.u.                6.2214 eV
     Dipole Oscillator Strength                    0.0000016989
  Root  16         a              0.229641147 a.u.                6.2489 eV
     Dipole Oscillator Strength                    0.0009814313
  Root  17         a              0.229992264 a.u.                6.2584 eV
     Dipole Oscillator Strength                    0.0000067133
  Root  18         a              0.232164518 a.u.                6.3175 eV
     Dipole Oscillator Strength                    0.0224991048
  Root  19         a              0.235318530 a.u.                6.4033 eV
     Dipole Oscillator Strength                    0.0001724041
  Root  20         a              0.241735865 a.u.                6.5780 eV
     Dipole Oscillator Strength                    0.0000005942
  Root  21         a              0.242550032 a.u.                6.6001 eV
     Dipole Oscillator Strength                    0.0947894221
  Root  22         a              0.245300573 a.u.                6.6750 eV
     Dipole Oscillator Strength                    0.0020267313
  Root  23         a              0.246406794 a.u.                6.7051 eV
     Dipole Oscillator Strength                    0.0331686335
  Root  24         a              0.247303833 a.u.                6.7295 eV
     Dipole Oscillator Strength                    0.0013122661
  Root  25         a              0.248306479 a.u.                6.7568 eV
     Dipole Oscillator Strength                    0.0000130914
  Root  26         a              0.251109979 a.u.                6.8331 eV
     Dipole Oscillator Strength                    0.0455467230
  Root  27         a              0.251960567 a.u.                6.8562 eV
     Dipole Oscillator Strength                    0.0099954778
  Root  28         a              0.252675935 a.u.                6.8757 eV
     Dipole Oscillator Strength                    0.0000580028
  Root  29         a              0.253992378 a.u.                6.9115 eV
     Dipole Oscillator Strength                    0.0000001696
  Root  30         a              0.254729333 a.u.                6.9315 eV
     Dipole Oscillator Strength                    0.3867025639
  Root  31         a              0.255322753 a.u.                6.9477 eV
     Dipole Oscillator Strength                    0.0690781095
  Root  32         a              0.260670960 a.u.                7.0932 eV
     Dipole Oscillator Strength                    0.0015913552
  Root  33         a              0.265421748 a.u.                7.2225 eV
     Dipole Oscillator Strength                    0.0000000548
  Root  34         a              0.267150187 a.u.                7.2695 eV
     Dipole Oscillator Strength                    0.2569024885
  Root  35         a              0.270844847 a.u.                7.3701 eV
     Dipole Oscillator Strength                    0.0000154456
  Root  36         a              0.271248938 a.u.                7.3811 eV
     Dipole Oscillator Strength                    0.0004233919
  Root  37         a              0.271693531 a.u.                7.3932 eV
     Dipole Oscillator Strength                    0.0509237575
  Root  38         a              0.271829137 a.u.                7.3969 eV
     Dipole Oscillator Strength                    0.0001127189
  Root  39         a              0.272283430 a.u.                7.4092 eV
     Dipole Oscillator Strength                    0.0000020504
  Root  40         a              0.272521959 a.u.                7.4157 eV
     Dipole Oscillator Strength                    0.0003121777
 Total times  cpu:     2662.5s     wall:     2760.8s
