============================== echo of input deck ==============================
echo
start

title "None"

geometry
C    -0.08747224    1.38830409    0.00177523
C    -1.26735482    0.69112092   -0.00065262
C    -1.16733630   -0.70470852   -0.00065272
C     0.08291598   -1.31598916    0.00128338
C     1.24655610   -0.55261762   -0.00065261
C     1.17058620    0.84472727   -0.00065265
H    -2.23189055    1.18090100   -0.00206554
H    -2.06748412   -1.30603725   -0.00184347
H     0.15092404   -2.39537432    0.00248390
H     2.21506130   -1.03620839   -0.00184361
H     2.06601969    1.45169726   -0.00206614
symmetry c1
end

basis spherical
 * library "aug-cc-pvtz"
end

dft
 direct
 mult 2
 iterations 500
 xc b3lyp
end

tddft
 nroots 40
 notriplet
 algorithm 1
end
task tddft energy
================================================================================

 Output coordinates in angstroms (scale by  1.889725989 to convert to a.u.)

  No.       Tag          Charge          X              Y              Z
 ---- ---------------- ---------- -------------- -------------- --------------
    1 C                    6.0000    -0.08747224     1.38830409     0.00183979
    2 C                    6.0000    -1.26735482     0.69112092    -0.00058806
    3 C                    6.0000    -1.16733630    -0.70470852    -0.00058816
    4 C                    6.0000     0.08291598    -1.31598916     0.00134794
    5 C                    6.0000     1.24655610    -0.55261762    -0.00058805
    6 C                    6.0000     1.17058620     0.84472727    -0.00058809
    7 H                    1.0000    -2.23189055     1.18090100    -0.00200098
    8 H                    1.0000    -2.06748412    -1.30603725    -0.00177891
    9 H                    1.0000     0.15092404    -2.39537432     0.00254846
   10 H                    1.0000     2.21506130    -1.03620839    -0.00177905
   11 H                    1.0000     2.06601969     1.45169726    -0.00200158

         Total DFT energy =     -231.646326164867

                    DFT Final Alpha Molecular Orbital Analysis
                    ------------------------------------------

 Vector    1  Occ=1.000000D+00  E=-1.020526D+01

 Vector  305  Occ=0.000000D+00  E= 3.874559D+00

 Vector  306  Occ=0.000000D+00  E= 3.900116D+00

 Vector  307  Occ=0.000000D+00  E= 3.910044D+00

 Vector  308  Occ=0.000000D+00  E= 3.921977D+00

 Vector  309  Occ=0.000000D+00  E= 3.926187D+00

 Vector  310  Occ=0.000000D+00  E= 3.952361D+00

 Vector  311  Occ=0.000000D+00  E= 3.958706D+00

 Vector  312  Occ=0.000000D+00  E= 3.962872D+00

 Vector  313  Occ=0.000000D+00  E= 3.989438D+00

 Vector  314  Occ=0.000000D+00  E= 3.994128D+00

 Vector  315  Occ=0.000000D+00  E= 4.010692D+00

 Vector  316  Occ=0.000000D+00  E= 4.033086D+00

 Vector  317  Occ=0.000000D+00  E= 4.060707D+00

 Vector  318  Occ=0.000000D+00  E= 4.070036D+00

 Vector  319  Occ=0.000000D+00  E= 4.102909D+00

 Vector  320  Occ=0.000000D+00  E= 4.103514D+00

 Vector  321  Occ=0.000000D+00  E= 4.105879D+00

 Vector  322  Occ=0.000000D+00  E= 4.154001D+00

 Vector  323  Occ=0.000000D+00  E= 4.206788D+00

 Vector  324  Occ=0.000000D+00  E= 4.230590D+00

 Vector  325  Occ=0.000000D+00  E= 4.236972D+00

 Vector  326  Occ=0.000000D+00  E= 4.330825D+00

 Vector  327  Occ=0.000000D+00  E= 4.345453D+00

 Vector  328  Occ=0.000000D+00  E= 4.390483D+00

 Vector  329  Occ=0.000000D+00  E= 4.420628D+00

 Vector  330  Occ=0.000000D+00  E= 4.444568D+00

 Vector  331  Occ=0.000000D+00  E= 4.462569D+00

 Vector  332  Occ=0.000000D+00  E= 4.485979D+00

 Vector  333  Occ=0.000000D+00  E= 4.490611D+00

 Vector  334  Occ=0.000000D+00  E= 4.506285D+00

 Vector  335  Occ=0.000000D+00  E= 4.520585D+00

 Vector  336  Occ=0.000000D+00  E= 4.575942D+00

 Vector  337  Occ=0.000000D+00  E= 4.627112D+00

 Vector  338  Occ=0.000000D+00  E= 4.651221D+00

 Vector  339  Occ=0.000000D+00  E= 4.658436D+00

 Vector  340  Occ=0.000000D+00  E= 4.705174D+00

 Vector  341  Occ=0.000000D+00  E= 4.720357D+00

 Vector  342  Occ=0.000000D+00  E= 4.750769D+00

 Vector  343  Occ=0.000000D+00  E= 4.754472D+00

 Vector  344  Occ=0.000000D+00  E= 4.767748D+00

 Vector  345  Occ=0.000000D+00  E= 4.802313D+00

 Vector  346  Occ=0.000000D+00  E= 4.805052D+00

 Vector  347  Occ=0.000000D+00  E= 4.807687D+00

 Vector  348  Occ=0.000000D+00  E= 4.822865D+00

 Vector  349  Occ=0.000000D+00  E= 4.857657D+00

 Vector  350  Occ=0.000000D+00  E= 4.903558D+00

 Vector  351  Occ=0.000000D+00  E= 4.933801D+00

 Vector  352  Occ=0.000000D+00  E= 4.949670D+00

 Vector  353  Occ=0.000000D+00  E= 4.959771D+00

 Vector  354  Occ=0.000000D+00  E= 4.982609D+00

 Vector  355  Occ=0.000000D+00  E= 5.085760D+00

 Vector  356  Occ=0.000000D+00  E= 5.088851D+00

 Vector  357  Occ=0.000000D+00  E= 5.093063D+00

 Vector  358  Occ=0.000000D+00  E= 5.167008D+00

 Vector  359  Occ=0.000000D+00  E= 5.260311D+00

 Vector  360  Occ=0.000000D+00  E= 5.323267D+00

 Vector  361  Occ=0.000000D+00  E= 5.323633D+00

 Vector  362  Occ=0.000000D+00  E= 5.410783D+00

 Vector  363  Occ=0.000000D+00  E= 5.415698D+00

 Vector  364  Occ=0.000000D+00  E= 5.436357D+00

 Vector  365  Occ=0.000000D+00  E= 5.620435D+00

 Vector  366  Occ=0.000000D+00  E= 5.635085D+00

 Vector  367  Occ=0.000000D+00  E= 5.682455D+00

 Vector  368  Occ=0.000000D+00  E= 5.749048D+00

 Vector  369  Occ=0.000000D+00  E= 5.802532D+00

 Vector  370  Occ=0.000000D+00  E= 5.919766D+00

 Vector  371  Occ=0.000000D+00  E= 5.930072D+00

 Vector  372  Occ=0.000000D+00  E= 6.047836D+00

 Vector  373  Occ=0.000000D+00  E= 6.165654D+00

 Vector  374  Occ=0.000000D+00  E= 6.253110D+00

 Vector  375  Occ=0.000000D+00  E= 6.406678D+00

 Vector  376  Occ=0.000000D+00  E= 6.449967D+00

 Vector  377  Occ=0.000000D+00  E= 6.604571D+00

 Vector  378  Occ=0.000000D+00  E= 6.864797D+00

 Vector  379  Occ=0.000000D+00  E= 1.504888D+01

 Vector  380  Occ=0.000000D+00  E= 1.506638D+01

 Vector  381  Occ=0.000000D+00  E= 1.597869D+01

 Vector  382  Occ=0.000000D+00  E= 1.764792D+01

 Vector  383  Occ=0.000000D+00  E= 1.800506D+01

 Vector  384  Occ=0.000000D+00  E= 1.806311D+01

     Multipole analysis of the density
     ---------------------------------

     L   x y z        total         alpha         beta         nuclear
     -   - - -        -----         -----         ----         -------
     0   0 0 0     -0.000000    -21.000000    -20.000000     41.000000

     1   1 0 0      0.021581      0.106833     -0.085252     -0.000000
     1   0 1 0     -0.340554     -1.694602      1.354047      0.000000
     1   0 0 1     -0.001527     -0.002347      0.000820     -0.000000

     2   2 0 0    -22.668296   -108.564852   -106.579938    192.476493
     2   1 1 0      0.190314     -0.490518     -1.118464      1.799295
     2   1 0 1      0.000332      0.000157     -0.000611      0.000785
     2   0 2 0    -25.676856   -100.810444    -88.898971    164.032559
     2   0 1 1     -0.005264     -0.002467      0.009727     -0.012524

  Root   1         a              0.106293081 a.u.                2.8924 eV
     Dipole Oscillator Strength                    0.0012114678
  Root   2         a              0.126063123 a.u.                3.4304 eV
     Dipole Oscillator Strength                    0.0000000828
  Root   3         a              0.143225978 a.u.                3.8974 eV
     Dipole Oscillator Strength                    0.0000121769
  Root   4         a              0.170396682 a.u.                4.6367 eV
     Dipole Oscillator Strength                    0.0000001551
  Root   5         a              0.171413663 a.u.                4.6644 eV
     Dipole Oscillator Strength                    0.0002489891
  Root   6         a              0.173940112 a.u.                4.7332 eV
     Dipole Oscillator Strength                    0.0037541367
  Root   7         a              0.177209481 a.u.                4.8221 eV
     Dipole Oscillator Strength                    0.0000140588
  Root   8         a              0.191911568 a.u.                5.2222 eV
     Dipole Oscillator Strength                    0.0006902617
  Root   9         a              0.201773449 a.u.                5.4905 eV
     Dipole Oscillator Strength                    0.0064699831
  Root  10         a              0.211027408 a.u.                5.7424 eV
     Dipole Oscillator Strength                    0.0075582559
  Root  11         a              0.215668133 a.u.                5.8686 eV
     Dipole Oscillator Strength                    0.0015009313
  Root  12         a              0.223036683 a.u.                6.0691 eV
     Dipole Oscillator Strength                    0.0002782671
  Root  13         a              0.224549384 a.u.                6.1103 eV
     Dipole Oscillator Strength                    0.0041185768
  Root  14         a              0.228570446 a.u.                6.2197 eV
     Dipole Oscillator Strength                    0.0089614916
  Root  15         a              0.228593948 a.u.                6.2204 eV
     Dipole Oscillator Strength                    0.0002524211
  Root  16         a              0.229659587 a.u.                6.2494 eV
     Dipole Oscillator Strength                    0.0010044526
  Root  17         a              0.229981197 a.u.                6.2581 eV
     Dipole Oscillator Strength                    0.0000040071
  Root  18         a              0.232246028 a.u.                6.3197 eV
     Dipole Oscillator Strength                    0.0225407207
  Root  19         a              0.235376332 a.u.                6.4049 eV
     Dipole Oscillator Strength                    0.0001762777
  Root  20         a              0.241719086 a.u.                6.5775 eV
     Dipole Oscillator Strength                    0.0000000713
  Root  21         a              0.242599526 a.u.                6.6015 eV
     Dipole Oscillator Strength                    0.0951590161
  Root  22         a              0.245274290 a.u.                6.6743 eV
     Dipole Oscillator Strength                    0.0018057822
  Root  23         a              0.246367563 a.u.                6.7040 eV
     Dipole Oscillator Strength                    0.0333290366
  Root  24         a              0.247299844 a.u.                6.7294 eV
     Dipole Oscillator Strength                    0.0013585109
  Root  25         a              0.248313824 a.u.                6.7570 eV
     Dipole Oscillator Strength                    0.0000022148
  Root  26         a              0.251184565 a.u.                6.8351 eV
     Dipole Oscillator Strength                    0.0473246099
  Root  27         a              0.251973112 a.u.                6.8565 eV
     Dipole Oscillator Strength                    0.0100905927
  Root  28         a              0.252620756 a.u.                6.8742 eV
     Dipole Oscillator Strength                    0.0000236717
  Root  29         a              0.253986756 a.u.                6.9113 eV
     Dipole Oscillator Strength                    0.0001685087
  Root  30         a              0.254756408 a.u.                6.9323 eV
     Dipole Oscillator Strength                    0.3851122071
  Root  31         a              0.255405789 a.u.                6.9499 eV
     Dipole Oscillator Strength                    0.0692082781
  Root  32         a              0.260752577 a.u.                7.0954 eV
     Dipole Oscillator Strength                    0.0016105944
  Root  33         a              0.265400269 a.u.                7.2219 eV
     Dipole Oscillator Strength                    0.0000011962
  Root  34         a              0.267189453 a.u.                7.2706 eV
     Dipole Oscillator Strength                    0.2578569024
  Root  35         a              0.270808528 a.u.                7.3691 eV
     Dipole Oscillator Strength                    0.0000185678
  Root  36         a              0.271252789 a.u.                7.3812 eV
     Dipole Oscillator Strength                    0.0004304093
  Root  37         a              0.271754585 a.u.                7.3948 eV
     Dipole Oscillator Strength                    0.0472073894
  Root  38         a              0.271807664 a.u.                7.3963 eV
     Dipole Oscillator Strength                    0.0004456594
  Root  39         a              0.272285074 a.u.                7.4093 eV
     Dipole Oscillator Strength                    0.0000001276
  Root  40         a              0.272508447 a.u.                7.4153 eV
     Dipole Oscillator Strength                    0.0005912441
 Total times  cpu:     3838.6s     wall:     3960.0s
