============================== echo of input deck ==============================
echo
start

title "None"

geometry
C    -0.08750929    1.38889179    0.00000005
C    -1.26826083    0.69111029   -0.00000002
C    -1.16691739   -0.70480860   -0.00000002
C     0.08290535   -1.31582163    0.00000004
C     1.24615313   -0.55276951   -0.00000001
C     1.17148646    0.84483067    0.00000005
H    -2.23383720    1.17889221   -0.00000010
H    -2.06601720   -1.30771451   -0.00000009
H     0.15091194   -2.39518811   -0.00000000
H     2.21381631   -1.03805695   -0.00000013
H     2.06820302    1.44994907   -0.00000010
symmetry c1
end

basis spherical
 * library "aug-cc-pvtz"
end

dft
 direct
 mult 2
 iterations 500
 xc b3lyp
end

tddft
 nroots 40
 notriplet
 algorithm 1
end
task tddft energy
================================================================================

 Output coordinates in angstroms (scale by  1.889725989 to convert to a.u.)

  No.       Tag          Charge          X              Y              Z
 ---- ---------------- ---------- -------------- -------------- --------------
    1 C                    6.0000    -0.08751469     1.38897765     0.00000005
    2 C                    6.0000    -1.26826623     0.69119615    -0.00000002
    3 C                    6.0000    -1.16692279    -0.70472274    -0.00000002
    4 C                    6.0000     0.08289995    -1.31573577     0.00000004
    5 C                    6.0000     1.24614773    -0.55268365    -0.00000001
    6 C                    6.0000     1.17148106     0.84491653     0.00000005
    7 H                    1.0000    -2.23384260     1.17897807    -0.00000010
    8 H                    1.0000    -2.06602260    -1.30762865    -0.00000009
    9 H                    1.0000     0.15090654    -2.39510225    -0.00000000
   10 H                    1.0000     2.21381091    -1.03797109    -0.00000013
   11 H                    1.0000     2.06819762     1.45003493    -0.00000010

         Total DFT energy =     -231.646323405613

                    DFT Final Alpha Molecular Orbital Analysis
                    ------------------------------------------

 Vector    1  Occ=1.000000D+00  E=-1.020559D+01

 Vector  305  Occ=0.000000D+00  E= 3.874061D+00

 Vector  306  Occ=0.000000D+00  E= 3.900158D+00

 Vector  307  Occ=0.000000D+00  E= 3.909077D+00

 Vector  308  Occ=0.000000D+00  E= 3.922353D+00

 Vector  309  Occ=0.000000D+00  E= 3.925597D+00

 Vector  310  Occ=0.000000D+00  E= 3.952604D+00

 Vector  311  Occ=0.000000D+00  E= 3.959193D+00

 Vector  312  Occ=0.000000D+00  E= 3.963043D+00

 Vector  313  Occ=0.000000D+00  E= 3.989030D+00

 Vector  314  Occ=0.000000D+00  E= 3.993451D+00

 Vector  315  Occ=0.000000D+00  E= 4.009985D+00

 Vector  316  Occ=0.000000D+00  E= 4.032650D+00

 Vector  317  Occ=0.000000D+00  E= 4.061064D+00

 Vector  318  Occ=0.000000D+00  E= 4.069383D+00

 Vector  319  Occ=0.000000D+00  E= 4.102086D+00

 Vector  320  Occ=0.000000D+00  E= 4.103532D+00

 Vector  321  Occ=0.000000D+00  E= 4.105620D+00

 Vector  322  Occ=0.000000D+00  E= 4.153059D+00

 Vector  323  Occ=0.000000D+00  E= 4.206777D+00

 Vector  324  Occ=0.000000D+00  E= 4.227842D+00

 Vector  325  Occ=0.000000D+00  E= 4.236715D+00

 Vector  326  Occ=0.000000D+00  E= 4.330744D+00

 Vector  327  Occ=0.000000D+00  E= 4.344987D+00

 Vector  328  Occ=0.000000D+00  E= 4.389577D+00

 Vector  329  Occ=0.000000D+00  E= 4.420186D+00

 Vector  330  Occ=0.000000D+00  E= 4.444688D+00

 Vector  331  Occ=0.000000D+00  E= 4.462978D+00

 Vector  332  Occ=0.000000D+00  E= 4.485608D+00

 Vector  333  Occ=0.000000D+00  E= 4.490383D+00

 Vector  334  Occ=0.000000D+00  E= 4.506325D+00

 Vector  335  Occ=0.000000D+00  E= 4.519767D+00

 Vector  336  Occ=0.000000D+00  E= 4.576078D+00

 Vector  337  Occ=0.000000D+00  E= 4.626394D+00

 Vector  338  Occ=0.000000D+00  E= 4.650716D+00

 Vector  339  Occ=0.000000D+00  E= 4.658695D+00

 Vector  340  Occ=0.000000D+00  E= 4.703585D+00

 Vector  341  Occ=0.000000D+00  E= 4.720465D+00

 Vector  342  Occ=0.000000D+00  E= 4.750626D+00

 Vector  343  Occ=0.000000D+00  E= 4.755409D+00

 Vector  344  Occ=0.000000D+00  E= 4.766944D+00

 Vector  345  Occ=0.000000D+00  E= 4.801139D+00

 Vector  346  Occ=0.000000D+00  E= 4.804623D+00

 Vector  347  Occ=0.000000D+00  E= 4.807624D+00

 Vector  348  Occ=0.000000D+00  E= 4.822788D+00

 Vector  349  Occ=0.000000D+00  E= 4.857249D+00

 Vector  350  Occ=0.000000D+00  E= 4.904245D+00

 Vector  351  Occ=0.000000D+00  E= 4.933193D+00

 Vector  352  Occ=0.000000D+00  E= 4.949483D+00

 Vector  353  Occ=0.000000D+00  E= 4.960191D+00

 Vector  354  Occ=0.000000D+00  E= 4.981917D+00

 Vector  355  Occ=0.000000D+00  E= 5.084834D+00

 Vector  356  Occ=0.000000D+00  E= 5.088345D+00

 Vector  357  Occ=0.000000D+00  E= 5.093088D+00

 Vector  358  Occ=0.000000D+00  E= 5.166590D+00

 Vector  359  Occ=0.000000D+00  E= 5.260867D+00

 Vector  360  Occ=0.000000D+00  E= 5.322660D+00

 Vector  361  Occ=0.000000D+00  E= 5.323561D+00

 Vector  362  Occ=0.000000D+00  E= 5.409775D+00

 Vector  363  Occ=0.000000D+00  E= 5.416016D+00

 Vector  364  Occ=0.000000D+00  E= 5.435925D+00

 Vector  365  Occ=0.000000D+00  E= 5.619927D+00

 Vector  366  Occ=0.000000D+00  E= 5.635319D+00

 Vector  367  Occ=0.000000D+00  E= 5.680857D+00

 Vector  368  Occ=0.000000D+00  E= 5.748834D+00

 Vector  369  Occ=0.000000D+00  E= 5.802020D+00

 Vector  370  Occ=0.000000D+00  E= 5.919600D+00

 Vector  371  Occ=0.000000D+00  E= 5.930524D+00

 Vector  372  Occ=0.000000D+00  E= 6.046061D+00

 Vector  373  Occ=0.000000D+00  E= 6.164901D+00

 Vector  374  Occ=0.000000D+00  E= 6.253268D+00

 Vector  375  Occ=0.000000D+00  E= 6.405939D+00

 Vector  376  Occ=0.000000D+00  E= 6.448960D+00

 Vector  377  Occ=0.000000D+00  E= 6.604646D+00

 Vector  378  Occ=0.000000D+00  E= 6.863664D+00

 Vector  379  Occ=0.000000D+00  E= 1.504048D+01

 Vector  380  Occ=0.000000D+00  E= 1.506300D+01

 Vector  381  Occ=0.000000D+00  E= 1.597364D+01

 Vector  382  Occ=0.000000D+00  E= 1.764776D+01

 Vector  383  Occ=0.000000D+00  E= 1.799778D+01

 Vector  384  Occ=0.000000D+00  E= 1.806135D+01

     Multipole analysis of the density
     ---------------------------------

     L   x y z        total         alpha         beta         nuclear
     -   - - -        -----         -----         ----         -------
     0   0 0 0     -0.000000    -21.000000    -20.000000     41.000000

     1   1 0 0      0.021579      0.106861     -0.085282      0.000000
     1   0 1 0     -0.341846     -1.695712      1.353866      0.000000
     1   0 0 1     -0.000001     -0.000001     -0.000000      0.000000

     2   2 0 0    -22.666165   -108.598185   -106.618421    192.550441
     2   1 1 0      0.190673     -0.491447     -1.120176      1.802296
     2   1 0 1      0.000000     -0.000001     -0.000001      0.000002
     2   0 2 0    -25.680381   -100.829232    -88.910399    164.059250
     2   0 1 1     -0.000005     -0.000003     -0.000003      0.000001

  Root   1         a              0.106165852 a.u.                2.8889 eV
     Dipole Oscillator Strength                    0.0012114104
  Root   2         a              0.126013440 a.u.                3.4290 eV
     Dipole Oscillator Strength                    0.0000000000
  Root   3         a              0.143156023 a.u.                3.8955 eV
     Dipole Oscillator Strength                    0.0000123201
  Root   4         a              0.170439910 a.u.                4.6379 eV
     Dipole Oscillator Strength                    0.0000000000
  Root   5         a              0.171336200 a.u.                4.6623 eV
     Dipole Oscillator Strength                    0.0002501005
  Root   6         a              0.173890986 a.u.                4.7318 eV
     Dipole Oscillator Strength                    0.0037556460
  Root   7         a              0.177140713 a.u.                4.8202 eV
     Dipole Oscillator Strength                    0.0000130403
  Root   8         a              0.191854374 a.u.                5.2206 eV
     Dipole Oscillator Strength                    0.0006922851
  Root   9         a              0.201711200 a.u.                5.4888 eV
     Dipole Oscillator Strength                    0.0064998899
  Root  10         a              0.211103643 a.u.                5.7444 eV
     Dipole Oscillator Strength                    0.0075380292
  Root  11         a              0.215638444 a.u.                5.8678 eV
     Dipole Oscillator Strength                    0.0014978082
  Root  12         a              0.222986088 a.u.                6.0678 eV
     Dipole Oscillator Strength                    0.0002703017
  Root  13         a              0.224491527 a.u.                6.1087 eV
     Dipole Oscillator Strength                    0.0041432482
  Root  14         a              0.228569418 a.u.                6.2197 eV
     Dipole Oscillator Strength                    0.0000000005
  Root  15         a              0.228642925 a.u.                6.2217 eV
     Dipole Oscillator Strength                    0.0091674881
  Root  16         a              0.229624873 a.u.                6.2484 eV
     Dipole Oscillator Strength                    0.0009785321
  Root  17         a              0.229961441 a.u.                6.2576 eV
     Dipole Oscillator Strength                    0.0000000000
  Root  18         a              0.232314786 a.u.                6.3216 eV
     Dipole Oscillator Strength                    0.0225977345
  Root  19         a              0.235308704 a.u.                6.4031 eV
     Dipole Oscillator Strength                    0.0001692207
  Root  20         a              0.241673096 a.u.                6.5763 eV
     Dipole Oscillator Strength                    0.0000000001
  Root  21         a              0.242517624 a.u.                6.5992 eV
     Dipole Oscillator Strength                    0.0951504588
  Root  22         a              0.245247769 a.u.                6.6735 eV
     Dipole Oscillator Strength                    0.0018715466
  Root  23         a              0.246343300 a.u.                6.7033 eV
     Dipole Oscillator Strength                    0.0331810142
  Root  24         a              0.247282320 a.u.                6.7289 eV
     Dipole Oscillator Strength                    0.0014671204
  Root  25         a              0.248285059 a.u.                6.7562 eV
     Dipole Oscillator Strength                    0.0000000001
  Root  26         a              0.251234931 a.u.                6.8365 eV
     Dipole Oscillator Strength                    0.0509797712
  Root  27         a              0.251953687 a.u.                6.8560 eV
     Dipole Oscillator Strength                    0.0100774577
  Root  28         a              0.252609995 a.u.                6.8739 eV
     Dipole Oscillator Strength                    0.0000000005
  Root  29         a              0.253982872 a.u.                6.9112 eV
     Dipole Oscillator Strength                    0.0000000005
  Root  30         a              0.254725745 a.u.                6.9314 eV
     Dipole Oscillator Strength                    0.3817976239
  Root  31         a              0.255463072 a.u.                6.9515 eV
     Dipole Oscillator Strength                    0.0702527714
  Root  32         a              0.260833138 a.u.                7.0976 eV
     Dipole Oscillator Strength                    0.0015904285
  Root  33         a              0.265351685 a.u.                7.2206 eV
     Dipole Oscillator Strength                    0.0000000000
  Root  34         a              0.267179173 a.u.                7.2703 eV
     Dipole Oscillator Strength                    0.2592547019
  Root  35         a              0.270789411 a.u.                7.3686 eV
     Dipole Oscillator Strength                    0.0000167418
  Root  36         a              0.271121251 a.u.                7.3776 eV
     Dipole Oscillator Strength                    0.0004296075
  Root  37         a              0.271791035 a.u.                7.3958 eV
     Dipole Oscillator Strength                    0.0001159856
  Root  38         a              0.271792315 a.u.                7.3958 eV
     Dipole Oscillator Strength                    0.0442199132
  Root  39         a              0.272251642 a.u.                7.4083 eV
     Dipole Oscillator Strength                    0.0000000000
  Root  40         a              0.272488715 a.u.                7.4148 eV
     Dipole Oscillator Strength                    0.0003154419
 Total times  cpu:     2945.9s     wall:     3043.3s
